# vtk DataFile Version 3.0
MOAB 5.1.1
ASCII
DATASET UNSTRUCTURED_GRID
POINTS 1004 double
0 0 0
0 0 1
0 1 1
0 1 0
50 0 0
50 0 1
50 1 1
50 1 0
0.2 0 0
0.4 0 0
0.6 0 0
0.8 0 0
1 0 0
1.2 0 0
1.4 0 0
1.6 0 0
1.8 0 0
2 0 0
2.2 0 0
2.4 0 0
2.6 0 0
2.8 0 0
3 0 0
3.2 0 0
3.4 0 0
3.6 0 0
3.8 0 0
4 0 0
4.2 0 0
4.4 0 0
4.6 0 0
4.8 0 0
5 0 0
5.2 0 0
5.4 0 0
5.6 0 0
5.8 0 0
6 0 0
6.2 0 0
6.4 0 0
6.6 0 0
6.8 0 0
7 0 0
7.2 0 0
7.4 0 0
7.6 0 0
7.8 0 0
8 0 0
8.2 0 0
8.4 0 0
8.6 0 0
8.8 0 0
9 0 0
9.2 0 0
9.4 0 0
9.6 0 0
9.8 0 0
10 0 0
10.2 0 0
10.4 0 0
10.6 0 0
10.8 0 0
11 0 0
11.2 0 0
11.4 0 0
11.6 0 0
11.8 0 0
12 0 0
12.2 0 0
12.4 0 0
12.6 0 0
12.8 0 0
13 0 0
13.2 0 0
13.4 0 0
13.6 0 0
13.8 0 0
14 0 0
14.2 0 0
14.4 0 0
14.6 0 0
14.8 0 0
15 0 0
15.2 0 0
15.4 0 0
15.6 0 0
15.8 0 0
16 0 0
16.2 0 0
16.4 0 0
16.6 0 0
16.8 0 0
17 0 0
17.2 0 0
17.4 0 0
17.6 0 0
17.8 0 0
18 0 0
18.2 0 0
18.4 0 0
18.6 0 0
18.8 0 0
19 0 0
19.2 0 0
19.4 0 0
19.6 0 0
19.8 0 0
20 0 0
20.2 0 0
20.4 0 0
20.6 0 0
20.8 0 0
21 0 0
21.2 0 0
21.4 0 0
21.6 0 0
21.8 0 0
22 0 0
22.2 0 0
22.4 0 0
22.6 0 0
22.8 0 0
23 0 0
23.2 0 0
23.4 0 0
23.6 0 0
23.8 0 0
24 0 0
24.2 0 0
24.4 0 0
24.6 0 0
24.8 0 0
25 0 0
25.2 0 0
25.4 0 0
25.6 0 0
25.8 0 0
26 0 0
26.2 0 0
26.4 0 0
26.6 0 0
26.8 0 0
27 0 0
27.2 0 0
27.4 0 0
27.6 0 0
27.8 0 0
28 0 0
28.2 0 0
28.4 0 0
28.6 0 0
28.8 0 0
29 0 0
29.2 0 0
29.4 0 0
29.6 0 0
29.8 0 0
30 0 0
30.2 0 0
30.4 0 0
30.6 0 0
30.8 0 0
31 0 0
31.2 0 0
31.4 0 0
31.6 0 0
31.8 0 0
32 0 0
32.2 0 0
32.4 0 0
32.6 0 0
32.8 0 0
33 0 0
33.2 0 0
33.4 0 0
33.6 0 0
33.8 0 0
34 0 0
34.2 0 0
34.4 0 0
34.6 0 0
34.8 0 0
35 0 0
35.2 0 0
35.4 0 0
35.6 0 0
35.8 0 0
36 0 0
36.2 0 0
36.4 0 0
36.6 0 0
36.8 0 0
37 0 0
37.2 0 0
37.4 0 0
37.6 0 0
37.8 0 0
38 0 0
38.2 0 0
38.4 0 0
38.6 0 0
38.8 0 0
39 0 0
39.2 0 0
39.4 0 0
39.6 0 0
39.8 0 0
40 0 0
40.2 0 0
40.4 0 0
40.6 0 0
40.8 0 0
41 0 0
41.2 0 0
41.4 0 0
41.6 0 0
41.8 0 0
42 0 0
42.2 0 0
42.4 0 0
42.6 0 0
42.8 0 0
43 0 0
43.2 0 0
43.4 0 0
43.6 0 0
43.8 0 0
44 0 0
44.2 0 0
44.4 0 0
44.6 0 0
44.8 0 0
45 0 0
45.2 0 0
45.4 0 0
45.6 0 0
45.8 0 0
46 0 0
46.2 0 0
46.4 0 0
46.6 0 0
46.8 0 0
47 0 0
47.2 0 0
47.4 0 0
47.6 0 0
47.8 0 0
48 0 0
48.2 0 0
48.4 0 0
48.6 0 0
48.8 0 0
49 0 0
49.2 0 0
49.4 0 0
49.6 0 0
49.8 0 0
0.2 0 1
0.4 0 1
0.6 0 1
0.8 0 1
1 0 1
1.2 0 1
1.4 0 1
1.6 0 1
1.8 0 1
2 0 1
2.2 0 1
2.4 0 1
2.6 0 1
2.8 0 1
3 0 1
3.2 0 1
3.4 0 1
3.6 0 1
3.8 0 1
4 0 1
4.2 0 1
4.4 0 1
4.6 0 1
4.8 0 1
5 0 1
5.2 0 1
5.4 0 1
5.6 0 1
5.8 0 1
6 0 1
6.2 0 1
6.4 0 1
6.6 0 1
6.8 0 1
7 0 1
7.2 0 1
7.4 0 1
7.6 0 1
7.8 0 1
8 0 1
8.2 0 1
8.4 0 1
8.6 0 1
8.8 0 1
9 0 1
9.2 0 1
9.4 0 1
9.6 0 1
9.8 0 1
10 0 1
10.2 0 1
10.4 0 1
10.6 0 1
10.8 0 1
11 0 1
11.2 0 1
11.4 0 1
11.6 0 1
11.8 0 1
12 0 1
12.2 0 1
12.4 0 1
12.6 0 1
12.8 0 1
13 0 1
13.2 0 1
13.4 0 1
13.6 0 1
13.8 0 1
14 0 1
14.2 0 1
14.4 0 1
14.6 0 1
14.8 0 1
15 0 1
15.2 0 1
15.4 0 1
15.6 0 1
15.8 0 1
16 0 1
16.2 0 1
16.4 0 1
16.6 0 1
16.8 0 1
17 0 1
17.2 0 1
17.4 0 1
17.6 0 1
17.8 0 1
18 0 1
18.2 0 1
18.4 0 1
18.6 0 1
18.8 0 1
19 0 1
19.2 0 1
19.4 0 1
19.6 0 1
19.8 0 1
20 0 1
20.2 0 1
20.4 0 1
20.6 0 1
20.8 0 1
21 0 1
21.2 0 1
21.4 0 1
21.6 0 1
21.8 0 1
22 0 1
22.2 0 1
22.4 0 1
22.6 0 1
22.8 0 1
23 0 1
23.2 0 1
23.4 0 1
23.6 0 1
23.8 0 1
24 0 1
24.2 0 1
24.4 0 1
24.6 0 1
24.8 0 1
25 0 1
25.2 0 1
25.4 0 1
25.6 0 1
25.8 0 1
26 0 1
26.2 0 1
26.4 0 1
26.6 0 1
26.8 0 1
27 0 1
27.2 0 1
27.4 0 1
27.6 0 1
27.8 0 1
28 0 1
28.2 0 1
28.4 0 1
28.6 0 1
28.8 0 1
29 0 1
29.2 0 1
29.4 0 1
29.6 0 1
29.8 0 1
30 0 1
30.2 0 1
30.4 0 1
30.6 0 1
30.8 0 1
31 0 1
31.2 0 1
31.4 0 1
31.6 0 1
31.8 0 1
32 0 1
32.2 0 1
32.4 0 1
32.6 0 1
32.8 0 1
33 0 1
33.2 0 1
33.4 0 1
33.6 0 1
33.8 0 1
34 0 1
34.2 0 1
34.4 0 1
34.6 0 1
34.8 0 1
35 0 1
35.2 0 1
35.4 0 1
35.6 0 1
35.8 0 1
36 0 1
36.2 0 1
36.4 0 1
36.6 0 1
36.8 0 1
37 0 1
37.2 0 1
37.4 0 1
37.6 0 1
37.8 0 1
38 0 1
38.2 0 1
38.4 0 1
38.6 0 1
38.8 0 1
39 0 1
39.2 0 1
39.4 0 1
39.6 0 1
39.8 0 1
40 0 1
40.2 0 1
40.4 0 1
40.6 0 1
40.8 0 1
41 0 1
41.2 0 1
41.4 0 1
41.6 0 1
41.8 0 1
42 0 1
42.2 0 1
42.4 0 1
42.6 0 1
42.8 0 1
43 0 1
43.2 0 1
43.4 0 1
43.6 0 1
43.8 0 1
44 0 1
44.2 0 1
44.4 0 1
44.6 0 1
44.8 0 1
45 0 1
45.2 0 1
45.4 0 1
45.6 0 1
45.8 0 1
46 0 1
46.2 0 1
46.4 0 1
46.6 0 1
46.8 0 1
47 0 1
47.2 0 1
47.4 0 1
47.6 0 1
47.8 0 1
48 0 1
48.2 0 1
48.4 0 1
48.6 0 1
48.8 0 1
49 0 1
49.2 0 1
49.4 0 1
49.6 0 1
49.8 0 1
0.2 1 1
0.4 1 1
0.6 1 1
0.8 1 1
1 1 1
1.2 1 1
1.4 1 1
1.6 1 1
1.8 1 1
2 1 1
2.2 1 1
2.4 1 1
2.6 1 1
2.8 1 1
3 1 1
3.2 1 1
3.4 1 1
3.6 1 1
3.8 1 1
4 1 1
4.2 1 1
4.4 1 1
4.6 1 1
4.8 1 1
5 1 1
5.2 1 1
5.4 1 1
5.6 1 1
5.8 1 1
6 1 1
6.2 1 1
6.4 1 1
6.6 1 1
6.8 1 1
7 1 1
7.2 1 1
7.4 1 1
7.6 1 1
7.8 1 1
8 1 1
8.2 1 1
8.4 1 1
8.6 1 1
8.8 1 1
9 1 1
9.2 1 1
9.4 1 1
9.6 1 1
9.8 1 1
10 1 1
10.2 1 1
10.4 1 1
10.6 1 1
10.8 1 1
11 1 1
11.2 1 1
11.4 1 1
11.6 1 1
11.8 1 1
12 1 1
12.2 1 1
12.4 1 1
12.6 1 1
12.8 1 1
13 1 1
13.2 1 1
13.4 1 1
13.6 1 1
13.8 1 1
14 1 1
14.2 1 1
14.4 1 1
14.6 1 1
14.8 1 1
15 1 1
15.2 1 1
15.4 1 1
15.6 1 1
15.8 1 1
16 1 1
16.2 1 1
16.4 1 1
16.6 1 1
16.8 1 1
17 1 1
17.2 1 1
17.4 1 1
17.6 1 1
17.8 1 1
18 1 1
18.2 1 1
18.4 1 1
18.6 1 1
18.8 1 1
19 1 1
19.2 1 1
19.4 1 1
19.6 1 1
19.8 1 1
20 1 1
20.2 1 1
20.4 1 1
20.6 1 1
20.8 1 1
21 1 1
21.2 1 1
21.4 1 1
21.6 1 1
21.8 1 1
22 1 1
22.2 1 1
22.4 1 1
22.6 1 1
22.8 1 1
23 1 1
23.2 1 1
23.4 1 1
23.6 1 1
23.8 1 1
24 1 1
24.2 1 1
24.4 1 1
24.6 1 1
24.8 1 1
25 1 1
25.2 1 1
25.4 1 1
25.6 1 1
25.8 1 1
26 1 1
26.2 1 1
26.4 1 1
26.6 1 1
26.8 1 1
27 1 1
27.2 1 1
27.4 1 1
27.6 1 1
27.8 1 1
28 1 1
28.2 1 1
28.4 1 1
28.6 1 1
28.8 1 1
29 1 1
29.2 1 1
29.4 1 1
29.6 1 1
29.8 1 1
30 1 1
30.2 1 1
30.4 1 1
30.6 1 1
30.8 1 1
31 1 1
31.2 1 1
31.4 1 1
31.6 1 1
31.8 1 1
32 1 1
32.2 1 1
32.4 1 1
32.6 1 1
32.8 1 1
33 1 1
33.2 1 1
33.4 1 1
33.6 1 1
33.8 1 1
34 1 1
34.2 1 1
34.4 1 1
34.6 1 1
34.8 1 1
35 1 1
35.2 1 1
35.4 1 1
35.6 1 1
35.8 1 1
36 1 1
36.2 1 1
36.4 1 1
36.6 1 1
36.8 1 1
37 1 1
37.2 1 1
37.4 1 1
37.6 1 1
37.8 1 1
38 1 1
38.2 1 1
38.4 1 1
38.6 1 1
38.8 1 1
39 1 1
39.2 1 1
39.4 1 1
39.6 1 1
39.8 1 1
40 1 1
40.2 1 1
40.4 1 1
40.6 1 1
40.8 1 1
41 1 1
41.2 1 1
41.4 1 1
41.6 1 1
41.8 1 1
42 1 1
42.2 1 1
42.4 1 1
42.6 1 1
42.8 1 1
43 1 1
43.2 1 1
43.4 1 1
43.6 1 1
43.8 1 1
44 1 1
44.2 1 1
44.4 1 1
44.6 1 1
44.8 1 1
45 1 1
45.2 1 1
45.4 1 1
45.6 1 1
45.8 1 1
46 1 1
46.2 1 1
46.4 1 1
46.6 1 1
46.8 1 1
47 1 1
47.2 1 1
47.4 1 1
47.6 1 1
47.8 1 1
48 1 1
48.2 1 1
48.4 1 1
48.6 1 1
48.8 1 1
49 1 1
49.2 1 1
49.4 1 1
49.6 1 1
49.8 1 1
0.2 1 0
0.4 1 0
0.6 1 0
0.8 1 0
1 1 0
1.2 1 0
1.4 1 0
1.6 1 0
1.8 1 0
2 1 0
2.2 1 0
2.4 1 0
2.6 1 0
2.8 1 0
3 1 0
3.2 1 0
3.4 1 0
3.6 1 0
3.8 1 0
4 1 0
4.2 1 0
4.4 1 0
4.6 1 0
4.8 1 0
5 1 0
5.2 1 0
5.4 1 0
5.6 1 0
5.8 1 0
6 1 0
6.2 1 0
6.4 1 0
6.6 1 0
6.8 1 0
7 1 0
7.2 1 0
7.4 1 0
7.6 1 0
7.8 1 0
8 1 0
8.2 1 0
8.4 1 0
8.6 1 0
8.8 1 0
9 1 0
9.2 1 0
9.4 1 0
9.6 1 0
9.8 1 0
10 1 0
10.2 1 0
10.4 1 0
10.6 1 0
10.8 1 0
11 1 0
11.2 1 0
11.4 1 0
11.6 1 0
11.8 1 0
12 1 0
12.2 1 0
12.4 1 0
12.6 1 0
12.8 1 0
13 1 0
13.2 1 0
13.4 1 0
13.6 1 0
13.8 1 0
14 1 0
14.2 1 0
14.4 1 0
14.6 1 0
14.8 1 0
15 1 0
15.2 1 0
15.4 1 0
15.6 1 0
15.8 1 0
16 1 0
16.2 1 0
16.4 1 0
16.6 1 0
16.8 1 0
17 1 0
17.2 1 0
17.4 1 0
17.6 1 0
17.8 1 0
18 1 0
18.2 1 0
18.4 1 0
18.6 1 0
18.8 1 0
19 1 0
19.2 1 0
19.4 1 0
19.6 1 0
19.8 1 0
20 1 0
20.2 1 0
20.4 1 0
20.6 1 0
20.8 1 0
21 1 0
21.2 1 0
21.4 1 0
21.6 1 0
21.8 1 0
22 1 0
22.2 1 0
22.4 1 0
22.6 1 0
22.8 1 0
23 1 0
23.2 1 0
23.4 1 0
23.6 1 0
23.8 1 0
24 1 0
24.2 1 0
24.4 1 0
24.6 1 0
24.8 1 0
25 1 0
25.2 1 0
25.4 1 0
25.6 1 0
25.8 1 0
26 1 0
26.2 1 0
26.4 1 0
26.6 1 0
26.8 1 0
27 1 0
27.2 1 0
27.4 1 0
27.6 1 0
27.8 1 0
28 1 0
28.2 1 0
28.4 1 0
28.6 1 0
28.8 1 0
29 1 0
29.2 1 0
29.4 1 0
29.6 1 0
29.8 1 0
30 1 0
30.2 1 0
30.4 1 0
30.6 1 0
30.8 1 0
31 1 0
31.2 1 0
31.4 1 0
31.6 1 0
31.8 1 0
32 1 0
32.2 1 0
32.4 1 0
32.6 1 0
32.8 1 0
33 1 0
33.2 1 0
33.4 1 0
33.6 1 0
33.8 1 0
34 1 0
34.2 1 0
34.4 1 0
34.6 1 0
34.8 1 0
35 1 0
35.2 1 0
35.4 1 0
35.6 1 0
35.8 1 0
36 1 0
36.2 1 0
36.4 1 0
36.6 1 0
36.8 1 0
37 1 0
37.2 1 0
37.4 1 0
37.6 1 0
37.8 1 0
38 1 0
38.2 1 0
38.4 1 0
38.6 1 0
38.8 1 0
39 1 0
39.2 1 0
39.4 1 0
39.6 1 0
39.8 1 0
40 1 0
40.2 1 0
40.4 1 0
40.6 1 0
40.8 1 0
41 1 0
41.2 1 0
41.4 1 0
41.6 1 0
41.8 1 0
42 1 0
42.2 1 0
42.4 1 0
42.6 1 0
42.8 1 0
43 1 0
43.2 1 0
43.4 1 0
43.6 1 0
43.8 1 0
44 1 0
44.2 1 0
44.4 1 0
44.6 1 0
44.8 1 0
45 1 0
45.2 1 0
45.4 1 0
45.6 1 0
45.8 1 0
46 1 0
46.2 1 0
46.4 1 0
46.6 1 0
46.8 1 0
47 1 0
47.2 1 0
47.4 1 0
47.6 1 0
47.8 1 0
48 1 0
48.2 1 0
48.4 1 0
48.6 1 0
48.8 1 0
49 1 0
49.2 1 0
49.4 1 0
49.6 1 0
49.8 1 0
CELLS 250 2250
8 2 1 0 3 506 257 8 755
8 506 257 8 755 507 258 9 756
8 507 258 9 756 508 259 10 757
8 508 259 10 757 509 260 11 758
8 509 260 11 758 510 261 12 759
8 510 261 12 759 511 262 13 760
8 511 262 13 760 512 263 14 761
8 512 263 14 761 513 264 15 762
8 513 264 15 762 514 265 16 763
8 514 265 16 763 515 266 17 764
8 515 266 17 764 516 267 18 765
8 516 267 18 765 517 268 19 766
8 517 268 19 766 518 269 20 767
8 518 269 20 767 519 270 21 768
8 519 270 21 768 520 271 22 769
8 520 271 22 769 521 272 23 770
8 521 272 23 770 522 273 24 771
8 522 273 24 771 523 274 25 772
8 523 274 25 772 524 275 26 773
8 524 275 26 773 525 276 27 774
8 525 276 27 774 526 277 28 775
8 526 277 28 775 527 278 29 776
8 527 278 29 776 528 279 30 777
8 528 279 30 777 529 280 31 778
8 529 280 31 778 530 281 32 779
8 530 281 32 779 531 282 33 780
8 531 282 33 780 532 283 34 781
8 532 283 34 781 533 284 35 782
8 533 284 35 782 534 285 36 783
8 534 285 36 783 535 286 37 784
8 535 286 37 784 536 287 38 785
8 536 287 38 785 537 288 39 786
8 537 288 39 786 538 289 40 787
8 538 289 40 787 539 290 41 788
8 539 290 41 788 540 291 42 789
8 540 291 42 789 541 292 43 790
8 541 292 43 790 542 293 44 791
8 542 293 44 791 543 294 45 792
8 543 294 45 792 544 295 46 793
8 544 295 46 793 545 296 47 794
8 545 296 47 794 546 297 48 795
8 546 297 48 795 547 298 49 796
8 547 298 49 796 548 299 50 797
8 548 299 50 797 549 300 51 798
8 549 300 51 798 550 301 52 799
8 550 301 52 799 551 302 53 800
8 551 302 53 800 552 303 54 801
8 552 303 54 801 553 304 55 802
8 553 304 55 802 554 305 56 803
8 554 305 56 803 555 306 57 804
8 555 306 57 804 556 307 58 805
8 556 307 58 805 557 308 59 806
8 557 308 59 806 558 309 60 807
8 558 309 60 807 559 310 61 808
8 559 310 61 808 560 311 62 809
8 560 311 62 809 561 312 63 810
8 561 312 63 810 562 313 64 811
8 562 313 64 811 563 314 65 812
8 563 314 65 812 564 315 66 813
8 564 315 66 813 565 316 67 814
8 565 316 67 814 566 317 68 815
8 566 317 68 815 567 318 69 816
8 567 318 69 816 568 319 70 817
8 568 319 70 817 569 320 71 818
8 569 320 71 818 570 321 72 819
8 570 321 72 819 571 322 73 820
8 571 322 73 820 572 323 74 821
8 572 323 74 821 573 324 75 822
8 573 324 75 822 574 325 76 823
8 574 325 76 823 575 326 77 824
8 575 326 77 824 576 327 78 825
8 576 327 78 825 577 328 79 826
8 577 328 79 826 578 329 80 827
8 578 329 80 827 579 330 81 828
8 579 330 81 828 580 331 82 829
8 580 331 82 829 581 332 83 830
8 581 332 83 830 582 333 84 831
8 582 333 84 831 583 334 85 832
8 583 334 85 832 584 335 86 833
8 584 335 86 833 585 336 87 834
8 585 336 87 834 586 337 88 835
8 586 337 88 835 587 338 89 836
8 587 338 89 836 588 339 90 837
8 588 339 90 837 589 340 91 838
8 589 340 91 838 590 341 92 839
8 590 341 92 839 591 342 93 840
8 591 342 93 840 592 343 94 841
8 592 343 94 841 593 344 95 842
8 593 344 95 842 594 345 96 843
8 594 345 96 843 595 346 97 844
8 595 346 97 844 596 347 98 845
8 596 347 98 845 597 348 99 846
8 597 348 99 846 598 349 100 847
8 598 349 100 847 599 350 101 848
8 599 350 101 848 600 351 102 849
8 600 351 102 849 601 352 103 850
8 601 352 103 850 602 353 104 851
8 602 353 104 851 603 354 105 852
8 603 354 105 852 604 355 106 853
8 604 355 106 853 605 356 107 854
8 605 356 107 854 606 357 108 855
8 606 357 108 855 607 358 109 856
8 607 358 109 856 608 359 110 857
8 608 359 110 857 609 360 111 858
8 609 360 111 858 610 361 112 859
8 610 361 112 859 611 362 113 860
8 611 362 113 860 612 363 114 861
8 612 363 114 861 613 364 115 862
8 613 364 115 862 614 365 116 863
8 614 365 116 863 615 366 117 864
8 615 366 117 864 616 367 118 865
8 616 367 118 865 617 368 119 866
8 617 368 119 866 618 369 120 867
8 618 369 120 867 619 370 121 868
8 619 370 121 868 620 371 122 869
8 620 371 122 869 621 372 123 870
8 621 372 123 870 622 373 124 871
8 622 373 124 871 623 374 125 872
8 623 374 125 872 624 375 126 873
8 624 375 126 873 625 376 127 874
8 625 376 127 874 626 377 128 875
8 626 377 128 875 627 378 129 876
8 627 378 129 876 628 379 130 877
8 628 379 130 877 629 380 131 878
8 629 380 131 878 630 381 132 879
8 630 381 132 879 631 382 133 880
8 631 382 133 880 632 383 134 881
8 632 383 134 881 633 384 135 882
8 633 384 135 882 634 385 136 883
8 634 385 136 883 635 386 137 884
8 635 386 137 884 636 387 138 885
8 636 387 138 885 637 388 139 886
8 637 388 139 886 638 389 140 887
8 638 389 140 887 639 390 141 888
8 639 390 141 888 640 391 142 889
8 640 391 142 889 641 392 143 890
8 641 392 143 890 642 393 144 891
8 642 393 144 891 643 394 145 892
8 643 394 145 892 644 395 146 893
8 644 395 146 893 645 396 147 894
8 645 396 147 894 646 397 148 895
8 646 397 148 895 647 398 149 896
8 647 398 149 896 648 399 150 897
8 648 399 150 897 649 400 151 898
8 649 400 151 898 650 401 152 899
8 650 401 152 899 651 402 153 900
8 651 402 153 900 652 403 154 901
8 652 403 154 901 653 404 155 902
8 653 404 155 902 654 405 156 903
8 654 405 156 903 655 406 157 904
8 655 406 157 904 656 407 158 905
8 656 407 158 905 657 408 159 906
8 657 408 159 906 658 409 160 907
8 658 409 160 907 659 410 161 908
8 659 410 161 908 660 411 162 909
8 660 411 162 909 661 412 163 910
8 661 412 163 910 662 413 164 911
8 662 413 164 911 663 414 165 912
8 663 414 165 912 664 415 166 913
8 664 415 166 913 665 416 167 914
8 665 416 167 914 666 417 168 915
8 666 417 168 915 667 418 169 916
8 667 418 169 916 668 419 170 917
8 668 419 170 917 669 420 171 918
8 669 420 171 918 670 421 172 919
8 670 421 172 919 671 422 173 920
8 671 422 173 920 672 423 174 921
8 672 423 174 921 673 424 175 922
8 673 424 175 922 674 425 176 923
8 674 425 176 923 675 426 177 924
8 675 426 177 924 676 427 178 925
8 676 427 178 925 677 428 179 926
8 677 428 179 926 678 429 180 927
8 678 429 180 927 679 430 181 928
8 679 430 181 928 680 431 182 929
8 680 431 182 929 681 432 183 930
8 681 432 183 930 682 433 184 931
8 682 433 184 931 683 434 185 932
8 683 434 185 932 684 435 186 933
8 684 435 186 933 685 436 187 934
8 685 436 187 934 686 437 188 935
8 686 437 188 935 687 438 189 936
8 687 438 189 936 688 439 190 937
8 688 439 190 937 689 440 191 938
8 689 440 191 938 690 441 192 939
8 690 441 192 939 691 442 193 940
8 691 442 193 940 692 443 194 941
8 692 443 194 941 693 444 195 942
8 693 444 195 942 694 445 196 943
8 694 445 196 943 695 446 197 944
8 695 446 197 944 696 447 198 945
8 696 447 198 945 697 448 199 946
8 697 448 199 946 698 449 200 947
8 698 449 200 947 699 450 201 948
8 699 450 201 948 700 451 202 949
8 700 451 202 949 701 452 203 950
8 701 452 203 950 702 453 204 951
8 702 453 204 951 703 454 205 952
8 703 454 205 952 704 455 206 953
8 704 455 206 953 705 456 207 954
8 705 456 207 954 706 457 208 955
8 706 457 208 955 707 458 209 956
8 707 458 209 956 708 459 210 957
8 708 459 210 957 709 460 211 958
8 709 460 211 958 710 461 212 959
8 710 461 212 959 711 462 213 960
8 711 462 213 960 712 463 214 961
8 712 463 214 961 713 464 215 962
8 713 464 215 962 714 465 216 963
8 714 465 216 963 715 466 217 964
8 715 466 217 964 716 467 218 965
8 716 467 218 965 717 468 219 966
8 717 468 219 966 718 469 220 967
8 718 469 220 967 719 470 221 968
8 719 470 221 968 720 471 222 969
8 720 471 222 969 721 472 223 970
8 721 472 223 970 722 473 224 971
8 722 473 224 971 723 474 225 972
8 723 474 225 972 724 475 226 973
8 724 475 226 973 725 476 227 974
8 725 476 227 974 726 477 228 975
8 726 477 228 975 727 478 229 976
8 727 478 229 976 728 479 230 977
8 728 479 230 977 729 480 231 978
8 729 480 231 978 730 481 232 979
8 730 481 232 979 731 482 233 980
8 731 482 233 980 732 483 234 981
8 732 483 234 981 733 484 235 982
8 733 484 235 982 734 485 236 983
8 734 485 236 983 735 486 237 984
8 735 486 237 984 736 487 238 985
8 736 487 238 985 737 488 239 986
8 737 488 239 986 738 489 240 987
8 738 489 240 987 739 490 241 988
8 739 490 241 988 740 491 242 989
8 740 491 242 989 741 492 243 990
8 741 492 243 990 742 493 244 991
8 742 493 244 991 743 494 245 992
8 743 494 245 992 744 495 246 993
8 744 495 246 993 745 496 247 994
8 745 496 247 994 746 497 248 995
8 746 497 248 995 747 498 249 996
8 747 498 249 996 748 499 250 997
8 748 499 250 997 749 500 251 998
8 749 500 251 998 750 501 252 999
8 750 501 252 999 751 502 253 1000
8 751 502 253 1000 752 503 254 1001
8 752 503 254 1001 753 504 255 1002
8 753 504 255 1002 754 505 256 1003
8 754 505 256 1003 6 5 4 7
CELL_TYPES 250
12
12
12
12
12
12
12
12
12
12
12
12
12
12
12
12
12
12
12
12
12
12
12
12
12
12
12
12
12
12
12
12
12
12
12
12
12
12
12
12
12
12
12
12
12
12
12
12
12
12
12
12
12
12
12
12
12
12
12
12
12
12
12
12
12
12
12
12
12
12
12
12
12
12
12
12
12
12
12
12
12
12
12
12
12
12
12
12
12
12
12
12
12
12
12
12
12
12
12
12
12
12
12
12
12
12
12
12
12
12
12
12
12
12
12
12
12
12
12
12
12
12
12
12
12
12
12
12
12
12
12
12
12
12
12
12
12
12
12
12
12
12
12
12
12
12
12
12
12
12
12
12
12
12
12
12
12
12
12
12
12
12
12
12
12
12
12
12
12
12
12
12
12
12
12
12
12
12
12
12
12
12
12
12
12
12
12
12
12
12
12
12
12
12
12
12
12
12
12
12
12
12
12
12
12
12
12
12
12
12
12
12
12
12
12
12
12
12
12
12
12
12
12
12
12
12
12
12
12
12
12
12
12
12
12
12
12
12
12
12
12
12
12
12
12
12
12
12
12
12
POINT_DATA 1004
SCALARS GLOBAL_ID int 1
LOOKUP_TABLE default
0 
1 
2 
3 
4 
5 
6 
7 
8 
9 
10 
11 
12 
13 
14 
15 
16 
17 
18 
19 
20 
21 
22 
23 
24 
25 
26 
27 
28 
29 
30 
31 
32 
33 
34 
35 
36 
37 
38 
39 
40 
41 
42 
43 
44 
45 
46 
47 
48 
49 
50 
51 
52 
53 
54 
55 
56 
57 
58 
59 
60 
61 
62 
63 
64 
65 
66 
67 
68 
69 
70 
71 
72 
73 
74 
75 
76 
77 
78 
79 
80 
81 
82 
83 
84 
85 
86 
87 
88 
89 
90 
91 
92 
93 
94 
95 
96 
97 
98 
99 
100 
101 
102 
103 
104 
105 
106 
107 
108 
109 
110 
111 
112 
113 
114 
115 
116 
117 
118 
119 
120 
121 
122 
123 
124 
125 
126 
127 
128 
129 
130 
131 
132 
133 
134 
135 
136 
137 
138 
139 
140 
141 
142 
143 
144 
145 
146 
147 
148 
149 
150 
151 
152 
153 
154 
155 
156 
157 
158 
159 
160 
161 
162 
163 
164 
165 
166 
167 
168 
169 
170 
171 
172 
173 
174 
175 
176 
177 
178 
179 
180 
181 
182 
183 
184 
185 
186 
187 
188 
189 
190 
191 
192 
193 
194 
195 
196 
197 
198 
199 
200 
201 
202 
203 
204 
205 
206 
207 
208 
209 
210 
211 
212 
213 
214 
215 
216 
217 
218 
219 
220 
221 
222 
223 
224 
225 
226 
227 
228 
229 
230 
231 
232 
233 
234 
235 
236 
237 
238 
239 
240 
241 
242 
243 
244 
245 
246 
247 
248 
249 
250 
251 
252 
253 
254 
255 
256 
257 
258 
259 
260 
261 
262 
263 
264 
265 
266 
267 
268 
269 
270 
271 
272 
273 
274 
275 
276 
277 
278 
279 
280 
281 
282 
283 
284 
285 
286 
287 
288 
289 
290 
291 
292 
293 
294 
295 
296 
297 
298 
299 
300 
301 
302 
303 
304 
305 
306 
307 
308 
309 
310 
311 
312 
313 
314 
315 
316 
317 
318 
319 
320 
321 
322 
323 
324 
325 
326 
327 
328 
329 
330 
331 
332 
333 
334 
335 
336 
337 
338 
339 
340 
341 
342 
343 
344 
345 
346 
347 
348 
349 
350 
351 
352 
353 
354 
355 
356 
357 
358 
359 
360 
361 
362 
363 
364 
365 
366 
367 
368 
369 
370 
371 
372 
373 
374 
375 
376 
377 
378 
379 
380 
381 
382 
383 
384 
385 
386 
387 
388 
389 
390 
391 
392 
393 
394 
395 
396 
397 
398 
399 
400 
401 
402 
403 
404 
405 
406 
407 
408 
409 
410 
411 
412 
413 
414 
415 
416 
417 
418 
419 
420 
421 
422 
423 
424 
425 
426 
427 
428 
429 
430 
431 
432 
433 
434 
435 
436 
437 
438 
439 
440 
441 
442 
443 
444 
445 
446 
447 
448 
449 
450 
451 
452 
453 
454 
455 
456 
457 
458 
459 
460 
461 
462 
463 
464 
465 
466 
467 
468 
469 
470 
471 
472 
473 
474 
475 
476 
477 
478 
479 
480 
481 
482 
483 
484 
485 
486 
487 
488 
489 
490 
491 
492 
493 
494 
495 
496 
497 
498 
499 
500 
501 
502 
503 
504 
505 
506 
507 
508 
509 
510 
511 
512 
513 
514 
515 
516 
517 
518 
519 
520 
521 
522 
523 
524 
525 
526 
527 
528 
529 
530 
531 
532 
533 
534 
535 
536 
537 
538 
539 
540 
541 
542 
543 
544 
545 
546 
547 
548 
549 
550 
551 
552 
553 
554 
555 
556 
557 
558 
559 
560 
561 
562 
563 
564 
565 
566 
567 
568 
569 
570 
571 
572 
573 
574 
575 
576 
577 
578 
579 
580 
581 
582 
583 
584 
585 
586 
587 
588 
589 
590 
591 
592 
593 
594 
595 
596 
597 
598 
599 
600 
601 
602 
603 
604 
605 
606 
607 
608 
609 
610 
611 
612 
613 
614 
615 
616 
617 
618 
619 
620 
621 
622 
623 
624 
625 
626 
627 
628 
629 
630 
631 
632 
633 
634 
635 
636 
637 
638 
639 
640 
641 
642 
643 
644 
645 
646 
647 
648 
649 
650 
651 
652 
653 
654 
655 
656 
657 
658 
659 
660 
661 
662 
663 
664 
665 
666 
667 
668 
669 
670 
671 
672 
673 
674 
675 
676 
677 
678 
679 
680 
681 
682 
683 
684 
685 
686 
687 
688 
689 
690 
691 
692 
693 
694 
695 
696 
697 
698 
699 
700 
701 
702 
703 
704 
705 
706 
707 
708 
709 
710 
711 
712 
713 
714 
715 
716 
717 
718 
719 
720 
721 
722 
723 
724 
725 
726 
727 
728 
729 
730 
731 
732 
733 
734 
735 
736 
737 
738 
739 
740 
741 
742 
743 
744 
745 
746 
747 
748 
749 
750 
751 
752 
753 
754 
755 
756 
757 
758 
759 
760 
761 
762 
763 
764 
765 
766 
767 
768 
769 
770 
771 
772 
773 
774 
775 
776 
777 
778 
779 
780 
781 
782 
783 
784 
785 
786 
787 
788 
789 
790 
791 
792 
793 
794 
795 
796 
797 
798 
799 
800 
801 
802 
803 
804 
805 
806 
807 
808 
809 
810 
811 
812 
813 
814 
815 
816 
817 
818 
819 
820 
821 
822 
823 
824 
825 
826 
827 
828 
829 
830 
831 
832 
833 
834 
835 
836 
837 
838 
839 
840 
841 
842 
843 
844 
845 
846 
847 
848 
849 
850 
851 
852 
853 
854 
855 
856 
857 
858 
859 
860 
861 
862 
863 
864 
865 
866 
867 
868 
869 
870 
871 
872 
873 
874 
875 
876 
877 
878 
879 
880 
881 
882 
883 
884 
885 
886 
887 
888 
889 
890 
891 
892 
893 
894 
895 
896 
897 
898 
899 
900 
901 
902 
903 
904 
905 
906 
907 
908 
909 
910 
911 
912 
913 
914 
915 
916 
917 
918 
919 
920 
921 
922 
923 
924 
925 
926 
927 
928 
929 
930 
931 
932 
933 
934 
935 
936 
937 
938 
939 
940 
941 
942 
943 
944 
945 
946 
947 
948 
949 
950 
951 
952 
953 
954 
955 
956 
957 
958 
959 
960 
961 
962 
963 
964 
965 
966 
967 
968 
969 
970 
971 
972 
973 
974 
975 
976 
977 
978 
979 
980 
981 
982 
983 
984 
985 
986 
987 
988 
989 
990 
991 
992 
993 
994 
995 
996 
997 
998 
999 
1000 
1001 
1002 
1003 
VECTORS NODES double
0 0 0 
0 0 1 
0 1 1 
0 1 0 
50 0 0 
50 0 1 
50 1 1 
50 1 0 
0.2 0 0 
0.4 0 0 
0.6 0 0 
0.8 0 0 
1 0 0 
1.2 0 0 
1.4 0 0 
1.6 0 0 
1.8 0 0 
2 0 0 
2.2 0 0 
2.4 0 0 
2.6 0 0 
2.8 0 0 
3 0 0 
3.2 0 0 
3.4 0 0 
3.6 0 0 
3.8 0 0 
4 0 0 
4.2 0 0 
4.4 0 0 
4.6 0 0 
4.8 0 0 
5 0 0 
5.2 0 0 
5.4 0 0 
5.6 0 0 
5.8 0 0 
6 0 0 
6.2 0 0 
6.4 0 0 
6.6 0 0 
6.8 0 0 
7 0 0 
7.2 0 0 
7.4 0 0 
7.6 0 0 
7.8 0 0 
8 0 0 
8.2 0 0 
8.4 0 0 
8.6 0 0 
8.8 0 0 
9 0 0 
9.2 0 0 
9.4 0 0 
9.6 0 0 
9.8 0 0 
10 0 0 
10.2 0 0 
10.4 0 0 
10.6 0 0 
10.8 0 0 
11 0 0 
11.2 0 0 
11.4 0 0 
11.6 0 0 
11.8 0 0 
12 0 0 
12.2 0 0 
12.4 0 0 
12.6 0 0 
12.8 0 0 
13 0 0 
13.2 0 0 
13.4 0 0 
13.6 0 0 
13.8 0 0 
14 0 0 
14.2 0 0 
14.4 0 0 
14.6 0 0 
14.8 0 0 
15 0 0 
15.2 0 0 
15.4 0 0 
15.6 0 0 
15.8 0 0 
16 0 0 
16.2 0 0 
16.4 0 0 
16.6 0 0 
16.8 0 0 
17 0 0 
17.2 0 0 
17.4 0 0 
17.6 0 0 
17.8 0 0 
18 0 0 
18.2 0 0 
18.4 0 0 
18.6 0 0 
18.8 0 0 
19 0 0 
19.2 0 0 
19.4 0 0 
19.6 0 0 
19.8 0 0 
20 0 0 
20.2 0 0 
20.4 0 0 
20.6 0 0 
20.8 0 0 
21 0 0 
21.2 0 0 
21.4 0 0 
21.6 0 0 
21.8 0 0 
22 0 0 
22.2 0 0 
22.4 0 0 
22.6 0 0 
22.8 0 0 
23 0 0 
23.2 0 0 
23.4 0 0 
23.6 0 0 
23.8 0 0 
24 0 0 
24.2 0 0 
24.4 0 0 
24.6 0 0 
24.8 0 0 
25 0 0 
25.2 0 0 
25.4 0 0 
25.6 0 0 
25.8 0 0 
26 0 0 
26.2 0 0 
26.4 0 0 
26.6 0 0 
26.8 0 0 
27 0 0 
27.2 0 0 
27.4 0 0 
27.6 0 0 
27.8 0 0 
28 0 0 
28.2 0 0 
28.4 0 0 
28.6 0 0 
28.8 0 0 
29 0 0 
29.2 0 0 
29.4 0 0 
29.6 0 0 
29.8 0 0 
30 0 0 
30.2 0 0 
30.4 0 0 
30.6 0 0 
30.8 0 0 
31 0 0 
31.2 0 0 
31.4 0 0 
31.6 0 0 
31.8 0 0 
32 0 0 
32.2 0 0 
32.4 0 0 
32.6 0 0 
32.8 0 0 
33 0 0 
33.2 0 0 
33.4 0 0 
33.6 0 0 
33.8 0 0 
34 0 0 
34.2 0 0 
34.4 0 0 
34.6 0 0 
34.8 0 0 
35 0 0 
35.2 0 0 
35.4 0 0 
35.6 0 0 
35.8 0 0 
36 0 0 
36.2 0 0 
36.4 0 0 
36.6 0 0 
36.8 0 0 
37 0 0 
37.2 0 0 
37.4 0 0 
37.6 0 0 
37.8 0 0 
38 0 0 
38.2 0 0 
38.4 0 0 
38.6 0 0 
38.8 0 0 
39 0 0 
39.2 0 0 
39.4 0 0 
39.6 0 0 
39.8 0 0 
40 0 0 
40.2 0 0 
40.4 0 0 
40.6 0 0 
40.8 0 0 
41 0 0 
41.2 0 0 
41.4 0 0 
41.6 0 0 
41.8 0 0 
42 0 0 
42.2 0 0 
42.4 0 0 
42.6 0 0 
42.8 0 0 
43 0 0 
43.2 0 0 
43.4 0 0 
43.6 0 0 
43.8 0 0 
44 0 0 
44.2 0 0 
44.4 0 0 
44.6 0 0 
44.8 0 0 
45 0 0 
45.2 0 0 
45.4 0 0 
45.6 0 0 
45.8 0 0 
46 0 0 
46.2 0 0 
46.4 0 0 
46.6 0 0 
46.8 0 0 
47 0 0 
47.2 0 0 
47.4 0 0 
47.6 0 0 
47.8 0 0 
48 0 0 
48.2 0 0 
48.4 0 0 
48.6 0 0 
48.8 0 0 
49 0 0 
49.2 0 0 
49.4 0 0 
49.6 0 0 
49.8 0 0 
0.2 0 1 
0.4 0 1 
0.6 0 1 
0.8 0 1 
1 0 1 
1.2 0 1 
1.4 0 1 
1.6 0 1 
1.8 0 1 
2 0 1 
2.2 0 1 
2.4 0 1 
2.6 0 1 
2.8 0 1 
3 0 1 
3.2 0 1 
3.4 0 1 
3.6 0 1 
3.8 0 1 
4 0 1 
4.2 0 1 
4.4 0 1 
4.6 0 1 
4.8 0 1 
5 0 1 
5.2 0 1 
5.4 0 1 
5.6 0 1 
5.8 0 1 
6 0 1 
6.2 0 1 
6.4 0 1 
6.6 0 1 
6.8 0 1 
7 0 1 
7.2 0 1 
7.4 0 1 
7.6 0 1 
7.8 0 1 
8 0 1 
8.2 0 1 
8.4 0 1 
8.6 0 1 
8.8 0 1 
9 0 1 
9.2 0 1 
9.4 0 1 
9.6 0 1 
9.8 0 1 
10 0 1 
10.2 0 1 
10.4 0 1 
10.6 0 1 
10.8 0 1 
11 0 1 
11.2 0 1 
11.4 0 1 
11.6 0 1 
11.8 0 1 
12 0 1 
12.2 0 1 
12.4 0 1 
12.6 0 1 
12.8 0 1 
13 0 1 
13.2 0 1 
13.4 0 1 
13.6 0 1 
13.8 0 1 
14 0 1 
14.2 0 1 
14.4 0 1 
14.6 0 1 
14.8 0 1 
15 0 1 
15.2 0 1 
15.4 0 1 
15.6 0 1 
15.8 0 1 
16 0 1 
16.2 0 1 
16.4 0 1 
16.6 0 1 
16.8 0 1 
17 0 1 
17.2 0 1 
17.4 0 1 
17.6 0 1 
17.8 0 1 
18 0 1 
18.2 0 1 
18.4 0 1 
18.6 0 1 
18.8 0 1 
19 0 1 
19.2 0 1 
19.4 0 1 
19.6 0 1 
19.8 0 1 
20 0 1 
20.2 0 1 
20.4 0 1 
20.6 0 1 
20.8 0 1 
21 0 1 
21.2 0 1 
21.4 0 1 
21.6 0 1 
21.8 0 1 
22 0 1 
22.2 0 1 
22.4 0 1 
22.6 0 1 
22.8 0 1 
23 0 1 
23.2 0 1 
23.4 0 1 
23.6 0 1 
23.8 0 1 
24 0 1 
24.2 0 1 
24.4 0 1 
24.6 0 1 
24.8 0 1 
25 0 1 
25.2 0 1 
25.4 0 1 
25.6 0 1 
25.8 0 1 
26 0 1 
26.2 0 1 
26.4 0 1 
26.6 0 1 
26.8 0 1 
27 0 1 
27.2 0 1 
27.4 0 1 
27.6 0 1 
27.8 0 1 
28 0 1 
28.2 0 1 
28.4 0 1 
28.6 0 1 
28.8 0 1 
29 0 1 
29.2 0 1 
29.4 0 1 
29.6 0 1 
29.8 0 1 
30 0 1 
30.2 0 1 
30.4 0 1 
30.6 0 1 
30.8 0 1 
31 0 1 
31.2 0 1 
31.4 0 1 
31.6 0 1 
31.8 0 1 
32 0 1 
32.2 0 1 
32.4 0 1 
32.6 0 1 
32.8 0 1 
33 0 1 
33.2 0 1 
33.4 0 1 
33.6 0 1 
33.8 0 1 
34 0 1 
34.2 0 1 
34.4 0 1 
34.6 0 1 
34.8 0 1 
35 0 1 
35.2 0 1 
35.4 0 1 
35.6 0 1 
35.8 0 1 
36 0 1 
36.2 0 1 
36.4 0 1 
36.6 0 1 
36.8 0 1 
37 0 1 
37.2 0 1 
37.4 0 1 
37.6 0 1 
37.8 0 1 
38 0 1 
38.2 0 1 
38.4 0 1 
38.6 0 1 
38.8 0 1 
39 0 1 
39.2 0 1 
39.4 0 1 
39.6 0 1 
39.8 0 1 
40 0 1 
40.2 0 1 
40.4 0 1 
40.6 0 1 
40.8 0 1 
41 0 1 
41.2 0 1 
41.4 0 1 
41.6 0 1 
41.8 0 1 
42 0 1 
42.2 0 1 
42.4 0 1 
42.6 0 1 
42.8 0 1 
43 0 1 
43.2 0 1 
43.4 0 1 
43.6 0 1 
43.8 0 1 
44 0 1 
44.2 0 1 
44.4 0 1 
44.6 0 1 
44.8 0 1 
45 0 1 
45.2 0 1 
45.4 0 1 
45.6 0 1 
45.8 0 1 
46 0 1 
46.2 0 1 
46.4 0 1 
46.6 0 1 
46.8 0 1 
47 0 1 
47.2 0 1 
47.4 0 1 
47.6 0 1 
47.8 0 1 
48 0 1 
48.2 0 1 
48.4 0 1 
48.6 0 1 
48.8 0 1 
49 0 1 
49.2 0 1 
49.4 0 1 
49.6 0 1 
49.8 0 1 
0.2 1 1 
0.4 1 1 
0.6 1 1 
0.8 1 1 
1 1 1 
1.2 1 1 
1.4 1 1 
1.6 1 1 
1.8 1 1 
2 1 1 
2.2 1 1 
2.4 1 1 
2.6 1 1 
2.8 1 1 
3 1 1 
3.2 1 1 
3.4 1 1 
3.6 1 1 
3.8 1 1 
4 1 1 
4.2 1 1 
4.4 1 1 
4.6 1 1 
4.8 1 1 
5 1 1 
5.2 1 1 
5.4 1 1 
5.6 1 1 
5.8 1 1 
6 1 1 
6.2 1 1 
6.4 1 1 
6.6 1 1 
6.8 1 1 
7 1 1 
7.2 1 1 
7.4 1 1 
7.6 1 1 
7.8 1 1 
8 1 1 
8.2 1 1 
8.4 1 1 
8.6 1 1 
8.8 1 1 
9 1 1 
9.2 1 1 
9.4 1 1 
9.6 1 1 
9.8 1 1 
10 1 1 
10.2 1 1 
10.4 1 1 
10.6 1 1 
10.8 1 1 
11 1 1 
11.2 1 1 
11.4 1 1 
11.6 1 1 
11.8 1 1 
12 1 1 
12.2 1 1 
12.4 1 1 
12.6 1 1 
12.8 1 1 
13 1 1 
13.2 1 1 
13.4 1 1 
13.6 1 1 
13.8 1 1 
14 1 1 
14.2 1 1 
14.4 1 1 
14.6 1 1 
14.8 1 1 
15 1 1 
15.2 1 1 
15.4 1 1 
15.6 1 1 
15.8 1 1 
16 1 1 
16.2 1 1 
16.4 1 1 
16.6 1 1 
16.8 1 1 
17 1 1 
17.2 1 1 
17.4 1 1 
17.6 1 1 
17.8 1 1 
18 1 1 
18.2 1 1 
18.4 1 1 
18.6 1 1 
18.8 1 1 
19 1 1 
19.2 1 1 
19.4 1 1 
19.6 1 1 
19.8 1 1 
20 1 1 
20.2 1 1 
20.4 1 1 
20.6 1 1 
20.8 1 1 
21 1 1 
21.2 1 1 
21.4 1 1 
21.6 1 1 
21.8 1 1 
22 1 1 
22.2 1 1 
22.4 1 1 
22.6 1 1 
22.8 1 1 
23 1 1 
23.2 1 1 
23.4 1 1 
23.6 1 1 
23.8 1 1 
24 1 1 
24.2 1 1 
24.4 1 1 
24.6 1 1 
24.8 1 1 
25 1 1 
25.2 1 1 
25.4 1 1 
25.6 1 1 
25.8 1 1 
26 1 1 
26.2 1 1 
26.4 1 1 
26.6 1 1 
26.8 1 1 
27 1 1 
27.2 1 1 
27.4 1 1 
27.6 1 1 
27.8 1 1 
28 1 1 
28.2 1 1 
28.4 1 1 
28.6 1 1 
28.8 1 1 
29 1 1 
29.2 1 1 
29.4 1 1 
29.6 1 1 
29.8 1 1 
30 1 1 
30.2 1 1 
30.4 1 1 
30.6 1 1 
30.8 1 1 
31 1 1 
31.2 1 1 
31.4 1 1 
31.6 1 1 
31.8 1 1 
32 1 1 
32.2 1 1 
32.4 1 1 
32.6 1 1 
32.8 1 1 
33 1 1 
33.2 1 1 
33.4 1 1 
33.6 1 1 
33.8 1 1 
34 1 1 
34.2 1 1 
34.4 1 1 
34.6 1 1 
34.8 1 1 
35 1 1 
35.2 1 1 
35.4 1 1 
35.6 1 1 
35.8 1 1 
36 1 1 
36.2 1 1 
36.4 1 1 
36.6 1 1 
36.8 1 1 
37 1 1 
37.2 1 1 
37.4 1 1 
37.6 1 1 
37.8 1 1 
38 1 1 
38.2 1 1 
38.4 1 1 
38.6 1 1 
38.8 1 1 
39 1 1 
39.2 1 1 
39.4 1 1 
39.6 1 1 
39.8 1 1 
40 1 1 
40.2 1 1 
40.4 1 1 
40.6 1 1 
40.8 1 1 
41 1 1 
41.2 1 1 
41.4 1 1 
41.6 1 1 
41.8 1 1 
42 1 1 
42.2 1 1 
42.4 1 1 
42.6 1 1 
42.8 1 1 
43 1 1 
43.2 1 1 
43.4 1 1 
43.6 1 1 
43.8 1 1 
44 1 1 
44.2 1 1 
44.4 1 1 
44.6 1 1 
44.8 1 1 
45 1 1 
45.2 1 1 
45.4 1 1 
45.6 1 1 
45.8 1 1 
46 1 1 
46.2 1 1 
46.4 1 1 
46.6 1 1 
46.8 1 1 
47 1 1 
47.2 1 1 
47.4 1 1 
47.6 1 1 
47.8 1 1 
48 1 1 
48.2 1 1 
48.4 1 1 
48.6 1 1 
48.8 1 1 
49 1 1 
49.2 1 1 
49.4 1 1 
49.6 1 1 
49.8 1 1 
0.2 1 0 
0.4 1 0 
0.6 1 0 
0.8 1 0 
1 1 0 
1.2 1 0 
1.4 1 0 
1.6 1 0 
1.8 1 0 
2 1 0 
2.2 1 0 
2.4 1 0 
2.6 1 0 
2.8 1 0 
3 1 0 
3.2 1 0 
3.4 1 0 
3.6 1 0 
3.8 1 0 
4 1 0 
4.2 1 0 
4.4 1 0 
4.6 1 0 
4.8 1 0 
5 1 0 
5.2 1 0 
5.4 1 0 
5.6 1 0 
5.8 1 0 
6 1 0 
6.2 1 0 
6.4 1 0 
6.6 1 0 
6.8 1 0 
7 1 0 
7.2 1 0 