# vtk DataFile Version 3.0
MOAB 5.1.1
ASCII
DATASET UNSTRUCTURED_GRID
POINTS 36 double
0 0 0
0 0 1
0 1 1
0 1 0
1.5 0 0
1.5 0 1
1.5 1 1
1.5 1 0
0.1875 0 0
0.375 0 0
0.5625 0 0
0.75 0 0
0.9375 0 0
1.125 0 0
1.3125 0 0
0.1875 0 1
0.375 0 1
0.5625 0 1
0.75 0 1
0.9375 0 1
1.125 0 1
1.3125 0 1
0.1875 1 1
0.375 1 1
0.5625 1 1
0.75 1 1
0.9375 1 1
1.125 1 1
1.3125 1 1
0.1875 1 0
0.375 1 0
0.5625 1 0
0.75 1 0
0.9375 1 0
1.125 1 0
1.3125 1 0
CELLS 8 72
8 2 1 0 3 22 15 8 29
8 22 15 8 29 23 16 9 30
8 23 16 9 30 24 17 10 31
8 24 17 10 31 25 18 11 32
8 25 18 11 32 26 19 12 33
8 26 19 12 33 27 20 13 34
8 27 20 13 34 28 21 14 35
8 28 21 14 35 6 5 4 7
CELL_TYPES 8
12
12
12
12
12
12
12
12
POINT_DATA 36
SCALARS GLOBAL_ID int 1
LOOKUP_TABLE default
0 
1 
2 
3 
4 
5 
6 
7 
8 
9 
10 
11 
12 
13 
14 
15 
16 
17 
18 
19 
20 
21 
22 
23 
24 
25 
26 
27 
28 
29 
30 
31 
32 
33 
34 
35 
VECTORS NODES double
0 0 0 
0 0 1 
0 1 1 
0 1 0 
1.5 0 0 
1.5 0 1 
1.5 1 1 
1.5 1 0 
0.1875 0 0 
0.375 0 0 
0.5625 0 0 
0.75 0 0 
0.9375 0 0 
1.125 0 0 
1.3125 0 0 
0.1875 0 1 
0.375 0 1 
0.5625 0 1 
0.75 0 1 
0.9375 0 1 
1.125 0 1 
1.3125 0 1 
0.1875 1 1 
0.375 1 1 
0.5625 1 1 
0.75 1 1 
0.9375 1 1 
1.125 1 1 
1.3125 1 1 
0.1875 1 0 
0.375 1 0 
0.5625 1 0 
0.75 1 0 
0.9375 1 0 
1.125 1 0 
1.3125 1 0 
VECTORS centroid_nodes double
0 0 0 
0 0 1 
0 1 1 
0 1 0 
1.5 0 0 
1.5 0 1 
1.5 1 1 
1.5 1 0 
0.1875 0 0 
0.375 0 0 
0.5625 0 0 
0.75 0 0 
0.9375 0 0 
1.125 0 0 
1.3125 0 0 
0.1875 0 1 
0.375 0 1 
0.5625 0 1 
0.75 0 1 
0.9375 0 1 
1.125 0 1 
1.3125 0 1 
0.1875 1 1 
0.375 1 1 
0.5625 1 1 
0.75 1 1 
0.9375 1 1 
1.125 1 1 
1.3125 1 1 
0.1875 1 0 
0.375 1 0 
0.5625 1 0 
0.75 1 0 
0.9375 1 0 
1.125 1 0 
1.3125 1 0 
CELL_DATA 8
SCALARS GLOBAL_ID int 1
LOOKUP_TABLE default
0 
1 
2 
3 
4 
5 
6 
7 
SCALARS Sg double 1
LOOKUP_TABLE default
1 
0.95158241 
0.900610643 
0.8506860878 
0.7741524397 
0.6701859149 
0.3772686105 
0.12517956 
SCALARS So double 1
LOOKUP_TABLE default
0 
0.04841758996 
0.09938935696 
0.1493139122 
0.2258475603 
0.3298140851 
0.6227313895 
0.87482044 
VECTORS centroid_volumes double
0.09375 0.5 0.5 
0.28125 0.5 0.5 
0.46875 0.5 0.5 
0.65625 0.5 0.5 
0.84375 0.5 0.5 
1.03125 0.5 0.5 
1.21875 0.5 0.5 
1.40625 0.5 0.5 
SCALARS flux_grav_volumes double 1
LOOKUP_TABLE default
0 
0 
0 
0 
0 
0 
0 
0 
SCALARS flux_o_volumes double 1
LOOKUP_TABLE default
0 
0 
0 
0 
0 
0 
0 
0 
SCALARS flux_volumes double 1
LOOKUP_TABLE default
0 
0 
0 
0 
0 
0 
0 
0 
SCALARS flux_volumes_test double 1
LOOKUP_TABLE default
0 
0 
0 
0 
0 
0 
0 
0 
SCALARS flux_w_volumes double 1
LOOKUP_TABLE default
0 
0 
0 
0 
0 
0 
0 
0 
SCALARS fw_vol double 1
LOOKUP_TABLE default
0 
0 
0 
0 
0 
0 
0 
0 
SCALARS gama double 1
LOOKUP_TABLE default
10000 
10000 
10000 
10000 
10000 
10000 
10000 
10000 
VECTORS hs double
0.1875 1 1 
0.1875 1 1 
0.1875 1 1 
0.1875 1 1 
0.1875 1 1 
0.1875 1 1 
0.1875 1 1 
0.1875 1 1 
SCALARS kro double 1
LOOKUP_TABLE default
0 
0 
0 
0 
0 
0 
0 
0 
SCALARS krw double 1
LOOKUP_TABLE default
0 
0 
0 
0 
0 
0 
0 
0 
SCALARS lambda_o double 1
LOOKUP_TABLE default
0 
0 
0 
0 
0 
0 
0 
0 
SCALARS lambda_t double 1
LOOKUP_TABLE default
0 
0 
0 
0 
0 
0 
0 
0 
SCALARS lambda_w double 1
LOOKUP_TABLE default
0 
0 
0 
0 
0 
0 
0 
0 
SCALARS mass_oil_production double 1
LOOKUP_TABLE default
0 
0 
0 
0 
0 
0 
0 
0 
SCALARS mass_water_production double 1
LOOKUP_TABLE default
0 
0 
0 
0 
0 
0 
0 
0 
TENSORS permeability double
9.869233e-15 0 0 0 9.869233e-15 0 0 0 9.869233e-15 
9.869233e-15 0 0 0 9.869233e-15 0 0 0 9.869233e-15 
9.869233e-15 0 0 0 9.869233e-15 0 0 0 9.869233e-15 
9.869233e-15 0 0 0 9.869233e-15 0 0 0 9.869233e-15 
9.869233e-15 0 0 0 9.869233e-15 0 0 0 9.869233e-15 
9.869233e-15 0 0 0 9.869233e-15 0 0 0 9.869233e-15 
9.869233e-15 0 0 0 9.869233e-15 0 0 0 9.869233e-15 
9.869233e-15 0 0 0 9.869233e-15 0 0 0 9.869233e-15 
SCALARS poro double 1
LOOKUP_TABLE default
1 
1 
1 
1 
1 
1 
1 
1 
SCALARS pressure double 1
LOOKUP_TABLE default
0 
0 
0 
0 
0 
0 
0 
0 
SCALARS saturation double 1
LOOKUP_TABLE default
0 
0 
0 
0 
0 
0 
0 
0 
SCALARS saturation_last double 1
LOOKUP_TABLE default
0 
0 
0 
0 
0 
0 
0 
0 
SCALARS test_fw double 1
LOOKUP_TABLE default
0 
0 
0 
0 
0 
0 
0 
0 
SCALARS verif_po double 1
LOOKUP_TABLE default
0 
0 
0 
0 
0 
0 
0 
0 
SCALARS verif_rest double 1
LOOKUP_TABLE default
0 
0 
0 
0 
0 
0 
0 
0 
SCALARS volume double 1
LOOKUP_TABLE default
0.1875 
0.1875 
0.1875 
0.1875 
0.1875 
0.1875 
0.1875 
0.1875 
VECTORS weight double
0 0 0 
0 0 0 
0 0 0 
0 0 0 
0 0 0 
0 0 0 
0 0 0 
0 0 0 
SCALARS zC1 double 1
LOOKUP_TABLE default
1 
0.9781277692 
0.9473846997 
0.8980283487 
0.8208230628 
0.7050669798 
0.5046776028 
0.4792248703 
SCALARS P double 1
LOOKUP_TABLE default
700000000 
0 
0 
0 
0 
0 
0 
700000000 
SCALARS INJ int 1
LOOKUP_TABLE default
1 
0 
0 
0 
0 
0 
0 
0 
SCALARS PROD int 1
LOOKUP_TABLE default
0 
0 
0 
0 
0 
0 
0 
1 
