# vtk DataFile Version 3.0
MOAB 5.1.1
ASCII
DATASET UNSTRUCTURED_GRID
POINTS 132 double
0 0 0
0 0 1
0 1 1
0 1 0
1.5 0 0
1.5 0 1
1.5 1 1
1.5 1 0
0.046875 0 0
0.09375 0 0
0.140625 0 0
0.1875 0 0
0.234375 0 0
0.28125 0 0
0.328125 0 0
0.375 0 0
0.421875 0 0
0.46875 0 0
0.515625 0 0
0.5625 0 0
0.609375 0 0
0.65625 0 0
0.703125 0 0
0.75 0 0
0.796875 0 0
0.84375 0 0
0.890625 0 0
0.9375 0 0
0.984375 0 0
1.03125 0 0
1.078125 0 0
1.125 0 0
1.171875 0 0
1.21875 0 0
1.265625 0 0
1.3125 0 0
1.359375 0 0
1.40625 0 0
1.453125 0 0
0.046875 0 1
0.09375 0 1
0.140625 0 1
0.1875 0 1
0.234375 0 1
0.28125 0 1
0.328125 0 1
0.375 0 1
0.421875 0 1
0.46875 0 1
0.515625 0 1
0.5625 0 1
0.609375 0 1
0.65625 0 1
0.703125 0 1
0.75 0 1
0.796875 0 1
0.84375 0 1
0.890625 0 1
0.9375 0 1
0.984375 0 1
1.03125 0 1
1.078125 0 1
1.125 0 1
1.171875 0 1
1.21875 0 1
1.265625 0 1
1.3125 0 1
1.359375 0 1
1.40625 0 1
1.453125 0 1
0.046875 1 1
0.09375 1 1
0.140625 1 1
0.1875 1 1
0.234375 1 1
0.28125 1 1
0.328125 1 1
0.375 1 1
0.421875 1 1
0.46875 1 1
0.515625 1 1
0.5625 1 1
0.609375 1 1
0.65625 1 1
0.703125 1 1
0.75 1 1
0.796875 1 1
0.84375 1 1
0.890625 1 1
0.9375 1 1
0.984375 1 1
1.03125 1 1
1.078125 1 1
1.125 1 1
1.171875 1 1
1.21875 1 1
1.265625 1 1
1.3125 1 1
1.359375 1 1
1.40625 1 1
1.453125 1 1
0.046875 1 0
0.09375 1 0
0.140625 1 0
0.1875 1 0
0.234375 1 0
0.28125 1 0
0.328125 1 0
0.375 1 0
0.421875 1 0
0.46875 1 0
0.515625 1 0
0.5625 1 0
0.609375 1 0
0.65625 1 0
0.703125 1 0
0.75 1 0
0.796875 1 0
0.84375 1 0
0.890625 1 0
0.9375 1 0
0.984375 1 0
1.03125 1 0
1.078125 1 0
1.125 1 0
1.171875 1 0
1.21875 1 0
1.265625 1 0
1.3125 1 0
1.359375 1 0
1.40625 1 0
1.453125 1 0
CELLS 32 288
8 2 1 0 3 70 39 8 101
8 70 39 8 101 71 40 9 102
8 71 40 9 102 72 41 10 103
8 72 41 10 103 73 42 11 104
8 73 42 11 104 74 43 12 105
8 74 43 12 105 75 44 13 106
8 75 44 13 106 76 45 14 107
8 76 45 14 107 77 46 15 108
8 77 46 15 108 78 47 16 109
8 78 47 16 109 79 48 17 110
8 79 48 17 110 80 49 18 111
8 80 49 18 111 81 50 19 112
8 81 50 19 112 82 51 20 113
8 82 51 20 113 83 52 21 114
8 83 52 21 114 84 53 22 115
8 84 53 22 115 85 54 23 116
8 85 54 23 116 86 55 24 117
8 86 55 24 117 87 56 25 118
8 87 56 25 118 88 57 26 119
8 88 57 26 119 89 58 27 120
8 89 58 27 120 90 59 28 121
8 90 59 28 121 91 60 29 122
8 91 60 29 122 92 61 30 123
8 92 61 30 123 93 62 31 124
8 93 62 31 124 94 63 32 125
8 94 63 32 125 95 64 33 126
8 95 64 33 126 96 65 34 127
8 96 65 34 127 97 66 35 128
8 97 66 35 128 98 67 36 129
8 98 67 36 129 99 68 37 130
8 99 68 37 130 100 69 38 131
8 100 69 38 131 6 5 4 7
CELL_TYPES 32
12
12
12
12
12
12
12
12
12
12
12
12
12
12
12
12
12
12
12
12
12
12
12
12
12
12
12
12
12
12
12
12
POINT_DATA 132
SCALARS GLOBAL_ID int 1
LOOKUP_TABLE default
0 
1 
2 
3 
4 
5 
6 
7 
8 
9 
10 
11 
12 
13 
14 
15 
16 
17 
18 
19 
20 
21 
22 
23 
24 
25 
26 
27 
28 
29 
30 
31 
32 
33 
34 
35 
36 
37 
38 
39 
40 
41 
42 
43 
44 
45 
46 
47 
48 
49 
50 
51 
52 
53 
54 
55 
56 
57 
58 
59 
60 
61 
62 
63 
64 
65 
66 
67 
68 
69 
70 
71 
72 
73 
74 
75 
76 
77 
78 
79 
80 
81 
82 
83 
84 
85 
86 
87 
88 
89 
90 
91 
92 
93 
94 
95 
96 
97 
98 
99 
100 
101 
102 
103 
104 
105 
106 
107 
108 
109 
110 
111 
112 
113 
114 
115 
116 
117 
118 
119 
120 
121 
122 
123 
124 
125 
126 
127 
128 
129 
130 
131 
VECTORS NODES double
0 0 0 
0 0 1 
0 1 1 
0 1 0 
1.5 0 0 
1.5 0 1 
1.5 1 1 
1.5 1 0 
0.046875 0 0 
0.09375 0 0 
0.140625 0 0 
0.1875 0 0 
0.234375 0 0 
0.28125 0 0 
0.328125 0 0 
0.375 0 0 
0.421875 0 0 
0.46875 0 0 
0.515625 0 0 
0.5625 0 0 
0.609375 0 0 
0.65625 0 0 
0.703125 0 0 
0.75 0 0 
0.796875 0 0 
0.84375 0 0 
0.890625 0 0 
0.9375 0 0 
0.984375 0 0 
1.03125 0 0 
1.078125 0 0 
1.125 0 0 
1.171875 0 0 
1.21875 0 0 
1.265625 0 0 
1.3125 0 0 
1.359375 0 0 
1.40625 0 0 
1.453125 0 0 
0.046875 0 1 
0.09375 0 1 
0.140625 0 1 
0.1875 0 1 
0.234375 0 1 
0.28125 0 1 
0.328125 0 1 
0.375 0 1 
0.421875 0 1 
0.46875 0 1 
0.515625 0 1 
0.5625 0 1 
0.609375 0 1 
0.65625 0 1 
0.703125 0 1 
0.75 0 1 
0.796875 0 1 
0.84375 0 1 
0.890625 0 1 
0.9375 0 1 
0.984375 0 1 
1.03125 0 1 
1.078125 0 1 
1.125 0 1 
1.171875 0 1 
1.21875 0 1 
1.265625 0 1 
1.3125 0 1 
1.359375 0 1 
1.40625 0 1 
1.453125 0 1 
0.046875 1 1 
0.09375 1 1 
0.140625 1 1 
0.1875 1 1 
0.234375 1 1 
0.28125 1 1 
0.328125 1 1 
0.375 1 1 
0.421875 1 1 
0.46875 1 1 
0.515625 1 1 
0.5625 1 1 
0.609375 1 1 
0.65625 1 1 
0.703125 1 1 
0.75 1 1 
0.796875 1 1 
0.84375 1 1 
0.890625 1 1 
0.9375 1 1 
0.984375 1 1 
1.03125 1 1 
1.078125 1 1 
1.125 1 1 
1.171875 1 1 
1.21875 1 1 
1.265625 1 1 
1.3125 1 1 
1.359375 1 1 
1.40625 1 1 
1.453125 1 1 
0.046875 1 0 
0.09375 1 0 
0.140625 1 0 
0.1875 1 0 
0.234375 1 0 
0.28125 1 0 
0.328125 1 0 
0.375 1 0 
0.421875 1 0 
0.46875 1 0 
0.515625 1 0 
0.5625 1 0 
0.609375 1 0 
0.65625 1 0 
0.703125 1 0 
0.75 1 0 
0.796875 1 0 
0.84375 1 0 
0.890625 1 0 
0.9375 1 0 
0.984375 1 0 
1.03125 1 0 
1.078125 1 0 
1.125 1 0 
1.171875 1 0 
1.21875 1 0 
1.265625 1 0 
1.3125 1 0 
1.359375 1 0 
1.40625 1 0 
1.453125 1 0 
VECTORS centroid_nodes double
0 0 0 
0 0 1 
0 1 1 
0 1 0 
1.5 0 0 
1.5 0 1 
1.5 1 1 
1.5 1 0 
0.046875 0 0 
0.09375 0 0 
0.140625 0 0 
0.1875 0 0 
0.234375 0 0 
0.28125 0 0 
0.328125 0 0 
0.375 0 0 
0.421875 0 0 
0.46875 0 0 
0.515625 0 0 
0.5625 0 0 
0.609375 0 0 
0.65625 0 0 
0.703125 0 0 
0.75 0 0 
0.796875 0 0 
0.84375 0 0 
0.890625 0 0 
0.9375 0 0 
0.984375 0 0 
1.03125 0 0 
1.078125 0 0 
1.125 0 0 
1.171875 0 0 
1.21875 0 0 
1.265625 0 0 
1.3125 0 0 
1.359375 0 0 
1.40625 0 0 
1.453125 0 0 
0.046875 0 1 
0.09375 0 1 
0.140625 0 1 
0.1875 0 1 
0.234375 0 1 
0.28125 0 1 
0.328125 0 1 
0.375 0 1 
0.421875 0 1 
0.46875 0 1 
0.515625 0 1 
0.5625 0 1 
0.609375 0 1 
0.65625 0 1 
0.703125 0 1 
0.75 0 1 
0.796875 0 1 
0.84375 0 1 
0.890625 0 1 
0.9375 0 1 
0.984375 0 1 
1.03125 0 1 
1.078125 0 1 
1.125 0 1 
1.171875 0 1 
1.21875 0 1 
1.265625 0 1 
1.3125 0 1 
1.359375 0 1 
1.40625 0 1 
1.453125 0 1 
0.046875 1 1 
0.09375 1 1 
0.140625 1 1 
0.1875 1 1 
0.234375 1 1 
0.28125 1 1 
0.328125 1 1 
0.375 1 1 
0.421875 1 1 
0.46875 1 1 
0.515625 1 1 
0.5625 1 1 
0.609375 1 1 
0.65625 1 1 
0.703125 1 1 
0.75 1 1 
0.796875 1 1 
0.84375 1 1 
0.890625 1 1 
0.9375 1 1 
0.984375 1 1 
1.03125 1 1 
1.078125 1 1 
1.125 1 1 
1.171875 1 1 
1.21875 1 1 
1.265625 1 1 
1.3125 1 1 
1.359375 1 1 
1.40625 1 1 
1.453125 1 1 
0.046875 1 0 
0.09375 1 0 
0.140625 1 0 
0.1875 1 0 
0.234375 1 0 
0.28125 1 0 
0.328125 1 0 
0.375 1 0 
0.421875 1 0 
0.46875 1 0 
0.515625 1 0 
0.5625 1 0 
0.609375 1 0 
0.65625 1 0 
0.703125 1 0 
0.75 1 0 
0.796875 1 0 
0.84375 1 0 
0.890625 1 0 
0.9375 1 0 
0.984375 1 0 
1.03125 1 0 
1.078125 1 0 
1.125 1 0 
1.171875 1 0 
1.21875 1 0 
1.265625 1 0 
1.3125 1 0 
1.359375 1 0 
1.40625 1 0 
1.453125 1 0 
CELL_DATA 32
SCALARS GLOBAL_ID int 1
LOOKUP_TABLE default
0 
1 
2 
3 
4 
5 
6 
7 
8 
9 
10 
11 
12 
13 
14 
15 
16 
17 
18 
19 
20 
21 
22 
23 
24 
25 
26 
27 
28 
29 
30 
31 
SCALARS Sg double 1
LOOKUP_TABLE default
1 
1 
1 
0.9948987779 
0.944983934 
0.929922392 
0.9226127128 
0.9196640305 
0.9193377202 
0.9200080259 
0.9200420202 
0.9178349274 
0.9116176836 
0.8993829494 
0.8797772635 
0.8538850043 
0.8249110611 
0.7953186644 
0.7658305322 
0.7364182081 
0.706994002 
0.6769604343 
0.6415433553 
0.561647655 
0.1742635017 
0 
0 
0 
0 
0 
0 
0 
SCALARS So double 1
LOOKUP_TABLE default
0 
0 
0 
0.005101222064 
0.05501606603 
0.07007760804 
0.07738728725 
0.0803359695 
0.08066227976 
0.07999197407 
0.07995797976 
0.08216507259 
0.08838231639 
0.1006170506 
0.1202227365 
0.1461149957 
0.1750889389 
0.2046813356 
0.2341694678 
0.2635817919 
0.293005998 
0.3230395657 
0.3584566447 
0.438352345 
0.8257364983 
1 
1 
1 
1 
1 
1 
1 
VECTORS centroid_volumes double
0.0234375 0.5 0.5 
0.0703125 0.5 0.5 
0.1171875 0.5 0.5 
0.1640625 0.5 0.5 
0.2109375 0.5 0.5 
0.2578125 0.5 0.5 
0.3046875 0.5 0.5 
0.3515625 0.5 0.5 
0.3984375 0.5 0.5 
0.4453125 0.5 0.5 
0.4921875 0.5 0.5 
0.5390625 0.5 0.5 
0.5859375 0.5 0.5 
0.6328125 0.5 0.5 
0.6796875 0.5 0.5 
0.7265625 0.5 0.5 
0.7734375 0.5 0.5 
0.8203125 0.5 0.5 
0.8671875 0.5 0.5 
0.9140625 0.5 0.5 
0.9609375 0.5 0.5 
1.0078125 0.5 0.5 
1.0546875 0.5 0.5 
1.1015625 0.5 0.5 
1.1484375 0.5 0.5 
1.1953125 0.5 0.5 
1.2421875 0.5 0.5 
1.2890625 0.5 0.5 
1.3359375 0.5 0.5 
1.3828125 0.5 0.5 
1.4296875 0.5 0.5 
1.4765625 0.5 0.5 
SCALARS flux_grav_volumes double 1
LOOKUP_TABLE default
0 
0 
0 
0 
0 
0 
0 
0 
0 
0 
0 
0 
0 
0 
0 
0 
0 
0 
0 
0 
0 
0 
0 
0 
0 
0 
0 
0 
0 
0 
0 
0 
SCALARS flux_o_volumes double 1
LOOKUP_TABLE default
0 
0 
0 
0 
0 
0 
0 
0 
0 
0 
0 
0 
0 
0 
0 
0 
0 
0 
0 
0 
0 
0 
0 
0 
0 
0 
0 
0 
0 
0 
0 
0 
SCALARS flux_volumes double 1
LOOKUP_TABLE default
0 
0 
0 
0 
0 
0 
0 
0 
0 
0 
0 
0 
0 
0 
0 
0 
0 
0 
0 
0 
0 
0 
0 
0 
0 
0 
0 
0 
0 
0 
0 
0 
SCALARS flux_volumes_test double 1
LOOKUP_TABLE default
0 
0 
0 
0 
0 
0 
0 
0 
0 
0 
0 
0 
0 
0 
0 
0 
0 
0 
0 
0 
0 
0 
0 
0 
0 
0 
0 
0 
0 
0 
0 
0 
SCALARS flux_w_volumes double 1
LOOKUP_TABLE default
0 
0 
0 
0 
0 
0 
0 
0 
0 
0 
0 
0 
0 
0 
0 
0 
0 
0 
0 
0 
0 
0 
0 
0 
0 
0 
0 
0 
0 
0 
0 
0 
SCALARS fw_vol double 1
LOOKUP_TABLE default
0 
0 
0 
0 
0 
0 
0 
0 
0 
0 
0 
0 
0 
0 
0 
0 
0 
0 
0 
0 
0 
0 
0 
0 
0 
0 
0 
0 
0 
0 
0 
0 
SCALARS gama double 1
LOOKUP_TABLE default
10000 
10000 
10000 
10000 
10000 
10000 
10000 
10000 
10000 
10000 
10000 
10000 
10000 
10000 
10000 
10000 
10000 
10000 
10000 
10000 
10000 
10000 
10000 
10000 
10000 
10000 
10000 
10000 
10000 
10000 
10000 
10000 
VECTORS hs double
0.046875 1 1 
0.046875 1 1 
0.046875 1 1 
0.046875 1 1 
0.046875 1 1 
0.046875 1 1 
0.046875 1 1 
0.046875 1 1 
0.046875 1 1 
0.046875 1 1 
0.046875 1 1 
0.046875 1 1 
0.046875 1 1 
0.046875 1 1 
0.046875 1 1 
0.046875 1 1 
0.046875 1 1 
0.046875 1 1 
0.046875 1 1 
0.046875 1 1 
0.046875 1 1 
0.046875 1 1 
0.046875 1 1 
0.046875 1 1 
0.046875 1 1 
0.046875 1 1 
0.046875 1 1 
0.046875 1 1 
0.046875 1 1 
0.046875 1 1 
0.046875 1 1 
0.046875 1 1 
SCALARS kro double 1
LOOKUP_TABLE default
0 
0 
0 
0 
0 
0 
0 
0 
0 
0 
0 
0 
0 
0 
0 
0 
0 
0 
0 
0 
0 
0 
0 
0 
0 
0 
0 
0 
0 
0 
0 
0 
SCALARS krw double 1
LOOKUP_TABLE default
0 
0 
0 
0 
0 
0 
0 
0 
0 
0 
0 
0 
0 
0 
0 
0 
0 
0 
0 
0 
0 
0 
0 
0 
0 
0 
0 
0 
0 
0 
0 
0 
SCALARS lambda_o double 1
LOOKUP_TABLE default
0 
0 
0 
0 
0 
0 
0 
0 
0 
0 
0 
0 
0 
0 
0 
0 
0 
0 
0 
0 
0 
0 
0 
0 
0 
0 
0 
0 
0 
0 
0 
0 
SCALARS lambda_t double 1
LOOKUP_TABLE default
0 
0 
0 
0 
0 
0 
0 
0 
0 
0 
0 
0 
0 
0 
0 
0 
0 
0 
0 
0 
0 
0 
0 
0 
0 
0 
0 
0 
0 
0 
0 
0 
SCALARS lambda_w double 1
LOOKUP_TABLE default
0 
0 
0 
0 
0 
0 
0 
0 
0 
0 
0 
0 
0 
0 
0 
0 
0 
0 
0 
0 
0 
0 
0 
0 
0 
0 
0 
0 
0 
0 
0 
0 
SCALARS mass_oil_production double 1
LOOKUP_TABLE default
0 
0 
0 
0 
0 
0 
0 
0 
0 
0 
0 
0 
0 
0 
0 
0 
0 
0 
0 
0 
0 
0 
0 
0 
0 
0 
0 
0 
0 
0 
0 
0 
SCALARS mass_water_production double 1
LOOKUP_TABLE default
0 
0 
0 
0 
0 
0 
0 
0 
0 
0 
0 
0 
0 
0 
0 
0 
0 
0 
0 
0 
0 
0 
0 
0 
0 
0 
0 
0 
0 
0 
0 
0 
TENSORS permeability double
9.869233e-15 0 0 0 9.869233e-15 0 0 0 9.869233e-15 
9.869233e-15 0 0 0 9.869233e-15 0 0 0 9.869233e-15 
9.869233e-15 0 0 0 9.869233e-15 0 0 0 9.869233e-15 
9.869233e-15 0 0 0 9.869233e-15 0 0 0 9.869233e-15 
9.869233e-15 0 0 0 9.869233e-15 0 0 0 9.869233e-15 
9.869233e-15 0 0 0 9.869233e-15 0 0 0 9.869233e-15 
9.869233e-15 0 0 0 9.869233e-15 0 0 0 9.869233e-15 
9.869233e-15 0 0 0 9.869233e-15 0 0 0 9.869233e-15 
9.869233e-15 0 0 0 9.869233e-15 0 0 0 9.869233e-15 
9.869233e-15 0 0 0 9.869233e-15 0 0 0 9.869233e-15 
9.869233e-15 0 0 0 9.869233e-15 0 0 0 9.869233e-15 
9.869233e-15 0 0 0 9.869233e-15 0 0 0 9.869233e-15 
9.869233e-15 0 0 0 9.869233e-15 0 0 0 9.869233e-15 
9.869233e-15 0 0 0 9.869233e-15 0 0 0 9.869233e-15 
9.869233e-15 0 0 0 9.869233e-15 0 0 0 9.869233e-15 
9.869233e-15 0 0 0 9.869233e-15 0 0 0 9.869233e-15 
9.869233e-15 0 0 0 9.869233e-15 0 0 0 9.869233e-15 
9.869233e-15 0 0 0 9.869233e-15 0 0 0 9.869233e-15 
9.869233e-15 0 0 0 9.869233e-15 0 0 0 9.869233e-15 
9.869233e-15 0 0 0 9.869233e-15 0 0 0 9.869233e-15 
9.869233e-15 0 0 0 9.869233e-15 0 0 0 9.869233e-15 
9.869233e-15 0 0 0 9.869233e-15 0 0 0 9.869233e-15 
9.869233e-15 0 0 0 9.869233e-15 0 0 0 9.869233e-15 
9.869233e-15 0 0 0 9.869233e-15 0 0 0 9.869233e-15 
9.869233e-15 0 0 0 9.869233e-15 0 0 0 9.869233e-15 
9.869233e-15 0 0 0 9.869233e-15 0 0 0 9.869233e-15 
9.869233e-15 0 0 0 9.869233e-15 0 0 0 9.869233e-15 
9.869233e-15 0 0 0 9.869233e-15 0 0 0 9.869233e-15 
9.869233e-15 0 0 0 9.869233e-15 0 0 0 9.869233e-15 
9.869233e-15 0 0 0 9.869233e-15 0 0 0 9.869233e-15 
9.869233e-15 0 0 0 9.869233e-15 0 0 0 9.869233e-15 
9.869233e-15 0 0 0 9.869233e-15 0 0 0 9.869233e-15 
SCALARS poro double 1
LOOKUP_TABLE default
1 
1 
1 
1 
1 
1 
1 
1 
1 
1 
1 
1 
1 
1 
1 
1 
1 
1 
1 
1 
1 
1 
1 
1 
1 
1 
1 
1 
1 
1 
1 
1 
SCALARS pressure double 1
LOOKUP_TABLE default
0 
0 
0 
0 
0 
0 
0 
0 
0 
0 
0 
0 
0 
0 
0 
0 
0 
0 
0 
0 
0 
0 
0 
0 
0 
0 
0 
0 
0 
0 
0 
0 
SCALARS saturation double 1
LOOKUP_TABLE default
0 
0 
0 
0 
0 
0 
0 
0 
0 
0 
0 
0 
0 
0 
0 
0 
0 
0 
0 
0 
0 
0 
0 
0 
0 
0 
0 
0 
0 
0 
0 
0 
SCALARS saturation_last double 1
LOOKUP_TABLE default
0 
0 
0 
0 
0 
0 
0 
0 
0 
0 
0 
0 
0 
0 
0 
0 
0 
0 
0 
0 
0 
0 
0 
0 
0 
0 
0 
0 
0 
0 
0 
0 
SCALARS test_fw double 1
LOOKUP_TABLE default
0 
0 
0 
0 
0 
0 
0 
0 
0 
0 
0 
0 
0 
0 
0 
0 
0 
0 
0 
0 
0 
0 
0 
0 
0 
0 
0 
0 
0 
0 
0 
0 
SCALARS verif_po double 1
LOOKUP_TABLE default
0 
0 
0 
0 
0 
0 
0 
0 
0 
0 
0 
0 
0 
0 
0 
0 
0 
0 
0 
0 
0 
0 
0 
0 
0 
0 
0 
0 
0 
0 
0 
0 
SCALARS verif_rest double 1
LOOKUP_TABLE default
0 
0 
0 
0 
0 
0 
0 
0 
0 
0 
0 
0 
0 
0 
0 
0 
0 
0 
0 
0 
0 
0 
0 
0 
0 
0 
0 
0 
0 
0 
0 
0 
SCALARS volume double 1
LOOKUP_TABLE default
0.046875 
0.046875 
0.046875 
0.046875 
0.046875 
0.046875 
0.046875 
0.046875 
0.046875 
0.046875 
0.046875 
0.046875 
0.046875 
0.046875 
0.046875 
0.046875 
0.046875 
0.046875 
0.046875 
0.046875 
0.046875 
0.046875 
0.046875 
0.046875 
0.046875 
0.046875 
0.046875 
0.046875 
0.046875 
0.046875 
0.046875 
0.046875 
VECTORS weight double
0 0 0 
0 0 0 
0 0 0 
0 0 0 
0 0 0 
0 0 0 
0 0 0 
0 0 0 
0 0 0 
0 0 0 
0 0 0 
0 0 0 
0 0 0 
0 0 0 
0 0 0 
0 0 0 
0 0 0 
0 0 0 
0 0 0 
0 0 0 
0 0 0 
0 0 0 
0 0 0 
0 0 0 
0 0 0 
0 0 0 
0 0 0 
0 0 0 
0 0 0 
0 0 0 
0 0 0 
0 0 0 
SCALARS zC1 double 1
LOOKUP_TABLE default
1 
0.9999999961 
0.9999937721 
0.9949495145 
0.9783659029 
0.9733541567 
0.9708880367 
0.9697738203 
0.9692718524 
0.9685096706 
0.9663612637 
0.9614545969 
0.9523629654 
0.9382490647 
0.9197659459 
0.8988783662 
0.8769604995 
0.8533813983 
0.8257797467 
0.790757955 
0.7445508389 
0.6840000846 
0.6073021602 
0.5093222184 
0.3501445401 
0.2301799766 
0.1552783821 
0.1005120601 
0.06234187444 
0.03700380362 
0.02100034077 
0.02263852874 
SCALARS P double 1
LOOKUP_TABLE default
700000000 
0 
0 
0 
0 
0 
0 
0 
0 
0 
0 
0 
0 
0 
0 
0 
0 
0 
0 
0 
0 
0 
0 
0 
0 
0 
0 
0 
0 
0 
0 
700000000 
SCALARS INJ int 1
LOOKUP_TABLE default
1 
0 
0 
0 
0 
0 
0 
0 
0 
0 
0 
0 
0 
0 
0 
0 
0 
0 
0 
0 
0 
0 
0 
0 
0 
0 
0 
0 
0 
0 
0 
0 
SCALARS PROD int 1
LOOKUP_TABLE default
0 
0 
0 
0 
0 
0 
0 
0 
0 
0 
0 
0 
0 
0 
0 
0 
0 
0 
0 
0 
0 
0 
0 
0 
0 
0 
0 
0 
0 
0 
0 
1 
