# vtk DataFile Version 3.0
MOAB 5.1.1
ASCII
DATASET UNSTRUCTURED_GRID
POINTS 204 double
0 0 0
0 0 1
0 1 1
0 1 0
50 0 0
50 0 1
50 1 1
50 1 0
1 0 0
2 0 0
3 0 0
4 0 0
5 0 0
6 0 0
7 0 0
8 0 0
9 0 0
10 0 0
11 0 0
12 0 0
13 0 0
14 0 0
15 0 0
16 0 0
17 0 0
18 0 0
19 0 0
20 0 0
21 0 0
22 0 0
23 0 0
24 0 0
25 0 0
26 0 0
27 0 0
28 0 0
29 0 0
30 0 0
31 0 0
32 0 0
33 0 0
34 0 0
35 0 0
36 0 0
37 0 0
38 0 0
39 0 0
40 0 0
41 0 0
42 0 0
43 0 0
44 0 0
45 0 0
46 0 0
47 0 0
48 0 0
49 0 0
1 0 1
2 0 1
3 0 1
4 0 1
5 0 1
6 0 1
7 0 1
8 0 1
9 0 1
10 0 1
11 0 1
12 0 1
13 0 1
14 0 1
15 0 1
16 0 1
17 0 1
18 0 1
19 0 1
20 0 1
21 0 1
22 0 1
23 0 1
24 0 1
25 0 1
26 0 1
27 0 1
28 0 1
29 0 1
30 0 1
31 0 1
32 0 1
33 0 1
34 0 1
35 0 1
36 0 1
37 0 1
38 0 1
39 0 1
40 0 1
41 0 1
42 0 1
43 0 1
44 0 1
45 0 1
46 0 1
47 0 1
48 0 1
49 0 1
1 1 1
2 1 1
3 1 1
4 1 1
5 1 1
6 1 1
7 1 1
8 1 1
9 1 1
10 1 1
11 1 1
12 1 1
13 1 1
14 1 1
15 1 1
16 1 1
17 1 1
18 1 1
19 1 1
20 1 1
21 1 1
22 1 1
23 1 1
24 1 1
25 1 1
26 1 1
27 1 1
28 1 1
29 1 1
30 1 1
31 1 1
32 1 1
33 1 1
34 1 1
35 1 1
36 1 1
37 1 1
38 1 1
39 1 1
40 1 1
41 1 1
42 1 1
43 1 1
44 1 1
45 1 1
46 1 1
47 1 1
48 1 1
49 1 1
1 1 0
2 1 0
3 1 0
4 1 0
5 1 0
6 1 0
7 1 0
8 1 0
9 1 0
10 1 0
11 1 0
12 1 0
13 1 0
14 1 0
15 1 0
16 1 0
17 1 0
18 1 0
19 1 0
20 1 0
21 1 0
22 1 0
23 1 0
24 1 0
25 1 0
26 1 0
27 1 0
28 1 0
29 1 0
30 1 0
31 1 0
32 1 0
33 1 0
34 1 0
35 1 0
36 1 0
37 1 0
38 1 0
39 1 0
40 1 0
41 1 0
42 1 0
43 1 0
44 1 0
45 1 0
46 1 0
47 1 0
48 1 0
49 1 0
CELLS 50 450
8 2 1 0 3 106 57 8 155
8 106 57 8 155 107 58 9 156
8 107 58 9 156 108 59 10 157
8 108 59 10 157 109 60 11 158
8 109 60 11 158 110 61 12 159
8 110 61 12 159 111 62 13 160
8 111 62 13 160 112 63 14 161
8 112 63 14 161 113 64 15 162
8 113 64 15 162 114 65 16 163
8 114 65 16 163 115 66 17 164
8 115 66 17 164 116 67 18 165
8 116 67 18 165 117 68 19 166
8 117 68 19 166 118 69 20 167
8 118 69 20 167 119 70 21 168
8 119 70 21 168 120 71 22 169
8 120 71 22 169 121 72 23 170
8 121 72 23 170 122 73 24 171
8 122 73 24 171 123 74 25 172
8 123 74 25 172 124 75 26 173
8 124 75 26 173 125 76 27 174
8 125 76 27 174 126 77 28 175
8 126 77 28 175 127 78 29 176
8 127 78 29 176 128 79 30 177
8 128 79 30 177 129 80 31 178
8 129 80 31 178 130 81 32 179
8 130 81 32 179 131 82 33 180
8 131 82 33 180 132 83 34 181
8 132 83 34 181 133 84 35 182
8 133 84 35 182 134 85 36 183
8 134 85 36 183 135 86 37 184
8 135 86 37 184 136 87 38 185
8 136 87 38 185 137 88 39 186
8 137 88 39 186 138 89 40 187
8 138 89 40 187 139 90 41 188
8 139 90 41 188 140 91 42 189
8 140 91 42 189 141 92 43 190
8 141 92 43 190 142 93 44 191
8 142 93 44 191 143 94 45 192
8 143 94 45 192 144 95 46 193
8 144 95 46 193 145 96 47 194
8 145 96 47 194 146 97 48 195
8 146 97 48 195 147 98 49 196
8 147 98 49 196 148 99 50 197
8 148 99 50 197 149 100 51 198
8 149 100 51 198 150 101 52 199
8 150 101 52 199 151 102 53 200
8 151 102 53 200 152 103 54 201
8 152 103 54 201 153 104 55 202
8 153 104 55 202 154 105 56 203
8 154 105 56 203 6 5 4 7
CELL_TYPES 50
12
12
12
12
12
12
12
12
12
12
12
12
12
12
12
12
12
12
12
12
12
12
12
12
12
12
12
12
12
12
12
12
12
12
12
12
12
12
12
12
12
12
12
12
12
12
12
12
12
12
POINT_DATA 204
SCALARS GLOBAL_ID int 1
LOOKUP_TABLE default
0 
1 
2 
3 
4 
5 
6 
7 
8 
9 
10 
11 
12 
13 
14 
15 
16 
17 
18 
19 
20 
21 
22 
23 
24 
25 
26 
27 
28 
29 
30 
31 
32 
33 
34 
35 
36 
37 
38 
39 
40 
41 
42 
43 
44 
45 
46 
47 
48 
49 
50 
51 
52 
53 
54 
55 
56 
57 
58 
59 
60 
61 
62 
63 
64 
65 
66 
67 
68 
69 
70 
71 
72 
73 
74 
75 
76 
77 
78 
79 
80 
81 
82 
83 
84 
85 
86 
87 
88 
89 
90 
91 
92 
93 
94 
95 
96 
97 
98 
99 
100 
101 
102 
103 
104 
105 
106 
107 
108 
109 
110 
111 
112 
113 
114 
115 
116 
117 
118 
119 
120 
121 
122 
123 
124 
125 
126 
127 
128 
129 
130 
131 
132 
133 
134 
135 
136 
137 
138 
139 
140 
141 
142 
143 
144 
145 
146 
147 
148 
149 
150 
151 
152 
153 
154 
155 
156 
157 
158 
159 
160 
161 
162 
163 
164 
165 
166 
167 
168 
169 
170 
171 
172 
173 
174 
175 
176 
177 
178 
179 
180 
181 
182 
183 
184 
185 
186 
187 
188 
189 
190 
191 
192 
193 
194 
195 
196 
197 
198 
199 
200 
201 
202 
203 
VECTORS NODES double
0 0 0 
0 0 1 
0 1 1 
0 1 0 
50 0 0 
50 0 1 
50 1 1 
50 1 0 
1 0 0 
2 0 0 
3 0 0 
4 0 0 
5 0 0 
6 0 0 
7 0 0 
8 0 0 
9 0 0 
10 0 0 
11 0 0 
12 0 0 
13 0 0 
14 0 0 
15 0 0 
16 0 0 
17 0 0 
18 0 0 
19 0 0 
20 0 0 
21 0 0 
22 0 0 
23 0 0 
24 0 0 
25 0 0 
26 0 0 
27 0 0 
28 0 0 
29 0 0 
30 0 0 
31 0 0 
32 0 0 
33 0 0 
34 0 0 
35 0 0 
36 0 0 
37 0 0 
38 0 0 
39 0 0 
40 0 0 
41 0 0 
42 0 0 
43 0 0 
44 0 0 
45 0 0 
46 0 0 
47 0 0 
48 0 0 
49 0 0 
1 0 1 
2 0 1 
3 0 1 
4 0 1 
5 0 1 
6 0 1 
7 0 1 
8 0 1 
9 0 1 
10 0 1 
11 0 1 
12 0 1 
13 0 1 
14 0 1 
15 0 1 
16 0 1 
17 0 1 
18 0 1 
19 0 1 
20 0 1 
21 0 1 
22 0 1 
23 0 1 
24 0 1 
25 0 1 
26 0 1 
27 0 1 
28 0 1 
29 0 1 
30 0 1 
31 0 1 
32 0 1 
33 0 1 
34 0 1 
35 0 1 
36 0 1 
37 0 1 
38 0 1 
39 0 1 
40 0 1 
41 0 1 
42 0 1 
43 0 1 
44 0 1 
45 0 1 
46 0 1 
47 0 1 
48 0 1 
49 0 1 
1 1 1 
2 1 1 
3 1 1 
4 1 1 
5 1 1 
6 1 1 
7 1 1 
8 1 1 
9 1 1 
10 1 1 
11 1 1 
12 1 1 
13 1 1 
14 1 1 
15 1 1 
16 1 1 
17 1 1 
18 1 1 
19 1 1 
20 1 1 
21 1 1 
22 1 1 
23 1 1 
24 1 1 
25 1 1 
26 1 1 
27 1 1 
28 1 1 
29 1 1 
30 1 1 
31 1 1 
32 1 1 
33 1 1 
34 1 1 
35 1 1 
36 1 1 
37 1 1 
38 1 1 
39 1 1 
40 1 1 
41 1 1 
42 1 1 
43 1 1 
44 1 1 
45 1 1 
46 1 1 
47 1 1 
48 1 1 
49 1 1 
1 1 0 
2 1 0 
3 1 0 
4 1 0 
5 1 0 
6 1 0 
7 1 0 
8 1 0 
9 1 0 
10 1 0 
11 1 0 
12 1 0 
13 1 0 
14 1 0 
15 1 0 
16 1 0 
17 1 0 
18 1 0 
19 1 0 
20 1 0 
21 1 0 
22 1 0 
23 1 0 
24 1 0 
25 1 0 
26 1 0 
27 1 0 
28 1 0 
29 1 0 
30 1 0 
31 1 0 
32 1 0 
33 1 0 
34 1 0 
35 1 0 
36 1 0 
37 1 0 
38 1 0 
39 1 0 
40 1 0 
41 1 0 
42 1 0 
43 1 0 
44 1 0 
45 1 0 
46 1 0 
47 1 0 
48 1 0 
49 1 0 
VECTORS centroid_nodes double
0 0 0 
0 0 1 
0 1 1 
0 1 0 
50 0 0 
50 0 1 
50 1 1 
50 1 0 
1 0 0 
2 0 0 
3 0 0 
4 0 0 
5 0 0 
6 0 0 
7 0 0 
8 0 0 
9 0 0 
10 0 0 
11 0 0 
12 0 0 
13 0 0 
14 0 0 
15 0 0 
16 0 0 
17 0 0 
18 0 0 
19 0 0 
20 0 0 
21 0 0 
22 0 0 
23 0 0 
24 0 0 
25 0 0 
26 0 0 
27 0 0 
28 0 0 
29 0 0 
30 0 0 
31 0 0 
32 0 0 
33 0 0 
34 0 0 
35 0 0 
36 0 0 
37 0 0 
38 0 0 
39 0 0 
40 0 0 
41 0 0 
42 0 0 
43 0 0 
44 0 0 
45 0 0 
46 0 0 
47 0 0 
48 0 0 
49 0 0 
1 0 1 
2 0 1 
3 0 1 
4 0 1 
5 0 1 
6 0 1 
7 0 1 
8 0 1 
9 0 1 
10 0 1 
11 0 1 
12 0 1 
13 0 1 
14 0 1 
15 0 1 
16 0 1 
17 0 1 
18 0 1 
19 0 1 
20 0 1 
21 0 1 
22 0 1 
23 0 1 
24 0 1 
25 0 1 
26 0 1 
27 0 1 
28 0 1 
29 0 1 
30 0 1 
31 0 1 
32 0 1 
33 0 1 
34 0 1 
35 0 1 
36 0 1 
37 0 1 
38 0 1 
39 0 1 
40 0 1 
41 0 1 
42 0 1 
43 0 1 
44 0 1 
45 0 1 
46 0 1 
47 0 1 
48 0 1 
49 0 1 
1 1 1 
2 1 1 
3 1 1 
4 1 1 
5 1 1 
6 1 1 
7 1 1 
8 1 1 
9 1 1 
10 1 1 
11 1 1 
12 1 1 
13 1 1 
14 1 1 
15 1 1 
16 1 1 
17 1 1 
18 1 1 
19 1 1 
20 1 1 
21 1 1 
22 1 1 
23 1 1 
24 1 1 
25 1 1 
26 1 1 
27 1 1 
28 1 1 
29 1 1 
30 1 1 
31 1 1 
32 1 1 
33 1 1 
34 1 1 
35 1 1 
36 1 1 
37 1 1 
38 1 1 
39 1 1 
40 1 1 
41 1 1 
42 1 1 
43 1 1 
44 1 1 
45 1 1 
46 1 1 
47 1 1 
48 1 1 
49 1 1 
1 1 0 
2 1 0 
3 1 0 
4 1 0 
5 1 0 
6 1 0 
7 1 0 
8 1 0 
9 1 0 
10 1 0 
11 1 0 
12 1 0 
13 1 0 
14 1 0 
15 1 0 
16 1 0 
17 1 0 
18 1 0 
19 1 0 
20 1 0 
21 1 0 
22 1 0 
23 1 0 
24 1 0 
25 1 0 
26 1 0 
27 1 0 
28 1 0 
29 1 0 
30 1 0 
31 1 0 
32 1 0 
33 1 0 
34 1 0 
35 1 0 
36 1 0 
37 1 0 
38 1 0 
39 1 0 
40 1 0 
41 1 0 
42 1 0 
43 1 0 
44 1 0 
45 1 0 
46 1 0 
47 1 0 
48 1 0 
49 1 0 
CELL_DATA 50
SCALARS GLOBAL_ID int 1
LOOKUP_TABLE default
0 
1 
2 
3 
4 
5 
6 
7 
8 
9 
10 
11 
12 
13 
14 
15 
16 
17 
18 
19 
20 
21 
22 
23 
24 
25 
26 
27 
28 
29 
30 
31 
32 
33 
34 
35 
36 
37 
38 
39 
40 
41 
42 
43 
44 
45 
46 
47 
48 
49 
VECTORS centroid_volumes double
0.5 0.5 0.5 
1.5 0.5 0.5 
2.5 0.5 0.5 
3.5 0.5 0.5 
4.5 0.5 0.5 
5.5 0.5 0.5 
6.5 0.5 0.5 
7.5 0.5 0.5 
8.5 0.5 0.5 
9.5 0.5 0.5 
10.5 0.5 0.5 
11.5 0.5 0.5 
12.5 0.5 0.5 
13.5 0.5 0.5 
14.5 0.5 0.5 
15.5 0.5 0.5 
16.5 0.5 0.5 
17.5 0.5 0.5 
18.5 0.5 0.5 
19.5 0.5 0.5 
20.5 0.5 0.5 
21.5 0.5 0.5 
22.5 0.5 0.5 
23.5 0.5 0.5 
24.5 0.5 0.5 
25.5 0.5 0.5 
26.5 0.5 0.5 
27.5 0.5 0.5 
28.5 0.5 0.5 
29.5 0.5 0.5 
30.5 0.5 0.5 
31.5 0.5 0.5 
32.5 0.5 0.5 
33.5 0.5 0.5 
34.5 0.5 0.5 
35.5 0.5 0.5 
36.5 0.5 0.5 
37.5 0.5 0.5 
38.5 0.5 0.5 
39.5 0.5 0.5 
40.5 0.5 0.5 
41.5 0.5 0.5 
42.5 0.5 0.5 
43.5 0.5 0.5 
44.5 0.5 0.5 
45.5 0.5 0.5 
46.5 0.5 0.5 
47.5 0.5 0.5 
48.5 0.5 0.5 
49.5 0.5 0.5 
SCALARS flux_grav_volumes double 1
LOOKUP_TABLE default
0 
0 
0 
0 
0 
0 
0 
0 
0 
0 
0 
0 
0 
0 
0 
0 
0 
0 
0 
0 
0 
0 
0 
0 
0 
0 
0 
0 
0 
0 
0 
0 
0 
0 
0 
0 
0 
0 
0 
0 
0 
0 
0 
0 
0 
0 
0 
0 
0 
0 
SCALARS flux_o_volumes double 1
LOOKUP_TABLE default
0 
0 
0 
0 
0 
0 
0 
0 
0 
0 
0 
0 
0 
0 
0 
0 
0 
0 
0 
0 
0 
0 
0 
0 
0 
0 
0 
0 
0 
0 
0 
0 
0 
0 
0 
0 
0 
0 
0 
0 
0 
0 
0 
0 
0 
0 
0 
0 
0 
0 
SCALARS flux_volumes double 1
LOOKUP_TABLE default
0 
0 
0 
0 
0 
0 
0 
0 
0 
0 
0 
0 
0 
0 
0 
0 
0 
0 
0 
0 
0 
0 
0 
0 
0 
0 
0 
0 
0 
0 
0 
0 
0 
0 
0 
0 
0 
0 
0 
0 
0 
0 
0 
0 
0 
0 
0 
0 
0 
0 
SCALARS flux_volumes_test double 1
LOOKUP_TABLE default
0 
0 
0 
0 
0 
0 
0 
0 
0 
0 
0 
0 
0 
0 
0 
0 
0 
0 
0 
0 
0 
0 
0 
0 
0 
0 
0 
0 
0 
0 
0 
0 
0 
0 
0 
0 
0 
0 
0 
0 
0 
0 
0 
0 
0 
0 
0 
0 
0 
0 
SCALARS flux_w_volumes double 1
LOOKUP_TABLE default
0 
0 
0 
0 
0 
0 
0 
0 
0 
0 
0 
0 
0 
0 
0 
0 
0 
0 
0 
0 
0 
0 
0 
0 
0 
0 
0 
0 
0 
0 
0 
0 
0 
0 
0 
0 
0 
0 
0 
0 
0 
0 
0 
0 
0 
0 
0 
0 
0 
0 
SCALARS fw_vol double 1
LOOKUP_TABLE default
0 
0 
0 
0 
0 
0 
0 
0 
0 
0 
0 
0 
0 
0 
0 
0 
0 
0 
0 
0 
0 
0 
0 
0 
0 
0 
0 
0 
0 
0 
0 
0 
0 
0 
0 
0 
0 
0 
0 
0 
0 
0 
0 
0 
0 
0 
0 
0 
0 
0 
SCALARS gama double 1
LOOKUP_TABLE default
10000 
10000 
10000 
10000 
10000 
10000 
10000 
10000 
10000 
10000 
10000 
10000 
10000 
10000 
10000 
10000 
10000 
10000 
10000 
10000 
10000 
10000 
10000 
10000 
10000 
10000 
10000 
10000 
10000 
10000 
10000 
10000 
10000 
10000 
10000 
10000 
10000 
10000 
10000 
10000 
10000 
10000 
10000 
10000 
10000 
10000 
10000 
10000 
10000 
10000 
VECTORS hs double
1 1 1 
1 1 1 
1 1 1 
1 1 1 
1 1 1 
1 1 1 
1 1 1 
1 1 1 
1 1 1 
1 1 1 
1 1 1 
1 1 1 
1 1 1 
1 1 1 
1 1 1 
1 1 1 
1 1 1 
1 1 1 
1 1 1 
1 1 1 
1 1 1 
1 1 1 
1 1 1 
1 1 1 
1 1 1 
1 1 1 
1 1 1 
1 1 1 
1 1 1 
1 1 1 
1 1 1 
1 1 1 
1 1 1 
1 1 1 
1 1 1 
1 1 1 
1 1 1 
1 1 1 
1 1 1 
1 1 1 
1 1 1 
1 1 1 
1 1 1 
1 1 1 
1 1 1 
1 1 1 
1 1 1 
1 1 1 
1 1 1 
1 1 1 
SCALARS kro double 1
LOOKUP_TABLE default
0 
0 
0 
0 
0 
0 
0 
0 
0 
0 
0 
0 
0 
0 
0 
0 
0 
0 
0 
0 
0 
0 
0 
0 
0 
0 
0 
0 
0 
0 
0 
0 
0 
0 
0 
0 
0 
0 
0 
0 
0 
0 
0 
0 
0 
0 
0 
0 
0 
0 
SCALARS krw double 1
LOOKUP_TABLE default
0 
0 
0 
0 
0 
0 
0 
0 
0 
0 
0 
0 
0 
0 
0 
0 
0 
0 
0 
0 
0 
0 
0 
0 
0 
0 
0 
0 
0 
0 
0 
0 
0 
0 
0 
0 
0 
0 
0 
0 
0 
0 
0 
0 
0 
0 
0 
0 
0 
0 
SCALARS lambda_o double 1
LOOKUP_TABLE default
0 
0 
0 
0 
0 
0 
0 
0 
0 
0 
0 
0 
0 
0 
0 
0 
0 
0 
0 
0 
0 
0 
0 
0 
0 
0 
0 
0 
0 
0 
0 
0 
0 
0 
0 
0 
0 
0 
0 
0 
0 
0 
0 
0 
0 
0 
0 
0 
0 
0 
SCALARS lambda_t double 1
LOOKUP_TABLE default
0 
0 
0 
0 
0 
0 
0 
0 
0 
0 
0 
0 
0 
0 
0 
0 
0 
0 
0 
0 
0 
0 
0 
0 
0 
0 
0 
0 
0 
0 
0 
0 
0 
0 
0 
0 
0 
0 
0 
0 
0 
0 
0 
0 
0 
0 
0 
0 
0 
0 
SCALARS lambda_w double 1
LOOKUP_TABLE default
0 
0 
0 
0 
0 
0 
0 
0 
0 
0 
0 
0 
0 
0 
0 
0 
0 
0 
0 
0 
0 
0 
0 
0 
0 
0 
0 
0 
0 
0 
0 
0 
0 
0 
0 
0 
0 
0 
0 
0 
0 
0 
0 
0 
0 
0 
0 
0 
0 
0 
SCALARS mass_oil_production double 1
LOOKUP_TABLE default
0 
0 
0 
0 
0 
0 
0 
0 
0 
0 
0 
0 
0 
0 
0 
0 
0 
0 
0 
0 
0 
0 
0 
0 
0 
0 
0 
0 
0 
0 
0 
0 
0 
0 
0 
0 
0 
0 
0 
0 
0 
0 
0 
0 
0 
0 
0 
0 
0 
0 
SCALARS mass_water_production double 1
LOOKUP_TABLE default
0 
0 
0 
0 
0 
0 
0 
0 
0 
0 
0 
0 
0 
0 
0 
0 
0 
0 
0 
0 
0 
0 
0 
0 
0 
0 
0 
0 
0 
0 
0 
0 
0 
0 
0 
0 
0 
0 
0 
0 
0 
0 
0 
0 
0 
0 
0 
0 
0 
0 
TENSORS permeability double
9.869233e-15 0 0 0 9.869233e-15 0 0 0 9.869233e-15 
9.869233e-15 0 0 0 9.869233e-15 0 0 0 9.869233e-15 
9.869233e-15 0 0 0 9.869233e-15 0 0 0 9.869233e-15 
9.869233e-15 0 0 0 9.869233e-15 0 0 0 9.869233e-15 
9.869233e-15 0 0 0 9.869233e-15 0 0 0 9.869233e-15 
9.869233e-15 0 0 0 9.869233e-15 0 0 0 9.869233e-15 
9.869233e-15 0 0 0 9.869233e-15 0 0 0 9.869233e-15 
9.869233e-15 0 0 0 9.869233e-15 0 0 0 9.869233e-15 
9.869233e-15 0 0 0 9.869233e-15 0 0 0 9.869233e-15 
9.869233e-15 0 0 0 9.869233e-15 0 0 0 9.869233e-15 
9.869233e-15 0 0 0 9.869233e-15 0 0 0 9.869233e-15 
9.869233e-15 0 0 0 9.869233e-15 0 0 0 9.869233e-15 
9.869233e-15 0 0 0 9.869233e-15 0 0 0 9.869233e-15 
9.869233e-15 0 0 0 9.869233e-15 0 0 0 9.869233e-15 
9.869233e-15 0 0 0 9.869233e-15 0 0 0 9.869233e-15 
9.869233e-15 0 0 0 9.869233e-15 0 0 0 9.869233e-15 
9.869233e-15 0 0 0 9.869233e-15 0 0 0 9.869233e-15 
9.869233e-15 0 0 0 9.869233e-15 0 0 0 9.869233e-15 
9.869233e-15 0 0 0 9.869233e-15 0 0 0 9.869233e-15 
9.869233e-15 0 0 0 9.869233e-15 0 0 0 9.869233e-15 
9.869233e-15 0 0 0 9.869233e-15 0 0 0 9.869233e-15 
9.869233e-15 0 0 0 9.869233e-15 0 0 0 9.869233e-15 
9.869233e-15 0 0 0 9.869233e-15 0 0 0 9.869233e-15 
9.869233e-15 0 0 0 9.869233e-15 0 0 0 9.869233e-15 
9.869233e-15 0 0 0 9.869233e-15 0 0 0 9.869233e-15 
9.869233e-15 0 0 0 9.869233e-15 0 0 0 9.869233e-15 
9.869233e-15 0 0 0 9.869233e-15 0 0 0 9.869233e-15 
9.869233e-15 0 0 0 9.869233e-15 0 0 0 9.869233e-15 
9.869233e-15 0 0 0 9.869233e-15 0 0 0 9.869233e-15 
9.869233e-15 0 0 0 9.869233e-15 0 0 0 9.869233e-15 
9.869233e-15 0 0 0 9.869233e-15 0 0 0 9.869233e-15 
9.869233e-15 0 0 0 9.869233e-15 0 0 0 9.869233e-15 
9.869233e-15 0 0 0 9.869233e-15 0 0 0 9.869233e-15 
9.869233e-15 0 0 0 9.869233e-15 0 0 0 9.869233e-15 
9.869233e-15 0 0 0 9.869233e-15 0 0 0 9.869233e-15 
9.869233e-15 0 0 0 9.869233e-15 0 0 0 9.869233e-15 
9.869233e-15 0 0 0 9.869233e-15 0 0 0 9.869233e-15 
9.869233e-15 0 0 0 9.869233e-15 0 0 0 9.869233e-15 
9.869233e-15 0 0 0 9.869233e-15 0 0 0 9.869233e-15 
9.869233e-15 0 0 0 9.869233e-15 0 0 0 9.869233e-15 
9.869233e-15 0 0 0 9.869233e-15 0 0 0 9.869233e-15 
9.869233e-15 0 0 0 9.869233e-15 0 0 0 9.869233e-15 
9.869233e-15 0 0 0 9.869233e-15 0 0 0 9.869233e-15 
9.869233e-15 0 0 0 9.869233e-15 0 0 0 9.869233e-15 
9.869233e-15 0 0 0 9.869233e-15 0 0 0 9.869233e-15 
9.869233e-15 0 0 0 9.869233e-15 0 0 0 9.869233e-15 
9.869233e-15 0 0 0 9.869233e-15 0 0 0 9.869233e-15 
9.869233e-15 0 0 0 9.869233e-15 0 0 0 9.869233e-15 
9.869233e-15 0 0 0 9.869233e-15 0 0 0 9.869233e-15 
9.869233e-15 0 0 0 9.869233e-15 0 0 0 9.869233e-15 
SCALARS poro double 1
LOOKUP_TABLE default
0.2 
0.2 
0.2 
0.2 
0.2 
0.2 
0.2 
0.2 
0.2 
0.2 
0.2 
0.2 
0.2 
0.2 
0.2 
0.2 
0.2 
0.2 
0.2 
0.2 
0.2 
0.2 
0.2 
0.2 
0.2 
0.2 
0.2 
0.2 
0.2 
0.2 
0.2 
0.2 
0.2 
0.2 
0.2 
0.2 
0.2 
0.2 
0.2 
0.2 
0.2 
0.2 
0.2 
0.2 
0.2 
0.2 
0.2 
0.2 
0.2 
0.2 
SCALARS pressure double 1
LOOKUP_TABLE default
0 
0 
0 
0 
0 
0 
0 
0 
0 
0 
0 
0 
0 
0 
0 
0 
0 
0 
0 
0 
0 
0 
0 
0 
0 
0 
0 
0 
0 
0 
0 
0 
0 
0 
0 
0 
0 
0 
0 
0 
0 
0 
0 
0 
0 
0 
0 
0 
0 
0 
SCALARS saturation double 1
LOOKUP_TABLE default
0 
0 
0 
0 
0 
0 
0 
0 
0 
0 
0 
0 
0 
0 
0 
0 
0 
0 
0 
0 
0 
0 
0 
0 
0 
0 
0 
0 
0 
0 
0 
0 
0 
0 
0 
0 
0 
0 
0 
0 
0 
0 
0 
0 
0 
0 
0 
0 
0 
0 
SCALARS saturation_last double 1
LOOKUP_TABLE default
0 
0 
0 
0 
0 
0 
0 
0 
0 
0 
0 
0 
0 
0 
0 
0 
0 
0 
0 
0 
0 
0 
0 
0 
0 
0 
0 
0 
0 
0 
0 
0 
0 
0 
0 
0 
0 
0 
0 
0 
0 
0 
0 
0 
0 
0 
0 
0 
0 
0 
SCALARS test_fw double 1
LOOKUP_TABLE default
0 
0 
0 
0 
0 
0 
0 
0 
0 
0 
0 
0 
0 
0 
0 
0 
0 
0 
0 
0 
0 
0 
0 
0 
0 
0 
0 
0 
0 
0 
0 
0 
0 
0 
0 
0 
0 
0 
0 
0 
0 
0 
0 
0 
0 
0 
0 
0 
0 
0 
SCALARS verif_po double 1
LOOKUP_TABLE default
0 
0 
0 
0 
0 
0 
0 
0 
0 
0 
0 
0 
0 
0 
0 
0 
0 
0 
0 
0 
0 
0 
0 
0 
0 
0 
0 
0 
0 
0 
0 
0 
0 
0 
0 
0 
0 
0 
0 
0 
0 
0 
0 
0 
0 
0 
0 
0 
0 
0 
SCALARS verif_rest double 1
LOOKUP_TABLE default
0 
0 
0 
0 
0 
0 
0 
0 
0 
0 
0 
0 
0 
0 
0 
0 
0 
0 
0 
0 
0 
0 
0 
0 
0 
0 
0 
0 
0 
0 
0 
0 
0 
0 
0 
0 
0 
0 
0 
0 
0 
0 
0 
0 
0 
0 
0 
0 
0 
0 
SCALARS volume double 1
LOOKUP_TABLE default
1 
1 
1 
1 
1 
1 
1 
1 
1 
1 
1 
1 
1 
1 
1 
1 
1 
1 
1 
1 
1 
1 
1 
1 
1 
1 
1 
1 
1 
1 
1 
1 
1 
1 
1 
1 
1 
1 
1 
1 
1 
1 
1 
1 
1 
1 
1 
1 
1 
1 
VECTORS weight double
0 0 0 
0 0 0 
0 0 0 
0 0 0 
0 0 0 
0 0 0 
0 0 0 
0 0 0 
0 0 0 
0 0 0 
0 0 0 
0 0 0 
0 0 0 
0 0 0 
0 0 0 
0 0 0 
0 0 0 
0 0 0 
0 0 0 
0 0 0 
0 0 0 
0 0 0 
0 0 0 
0 0 0 
0 0 0 
0 0 0 
0 0 0 
0 0 0 
0 0 0 
0 0 0 
0 0 0 
0 0 0 
0 0 0 
0 0 0 
0 0 0 
0 0 0 
0 0 0 
0 0 0 
0 0 0 
0 0 0 
0 0 0 
0 0 0 
0 0 0 
0 0 0 
0 0 0 
0 0 0 
0 0 0 
0 0 0 
0 0 0 
0 0 0 
SCALARS P double 1
LOOKUP_TABLE default
7000000 
0 
0 
0 
0 
0 
0 
0 
0 
0 
0 
0 
0 
0 
0 
0 
0 
0 
0 
0 
0 
0 
0 
0 
0 
0 
0 
0 
0 
0 
0 
0 
0 
0 
0 
0 
0 
0 
0 
0 
0 
0 
0 
0 
0 
0 
0 
0 
0 
6900000 
SCALARS INJ int 1
LOOKUP_TABLE default
1 
0 
0 
0 
0 
0 
0 
0 
0 
0 
0 
0 
0 
0 
0 
0 
0 
0 
0 
0 
0 
0 
0 
0 
0 
0 
0 
0 
0 
0 
0 
0 
0 
0 
0 
0 
0 
0 
0 
0 
0 
0 
0 
0 
0 
0 
0 
0 
0 
0 
SCALARS PROD int 1
LOOKUP_TABLE default
0 
0 
0 
0 
0 
0 
0 
0 
0 
0 
0 
0 
0 
0 
0 
0 
0 
0 
0 
0 
0 
0 
0 
0 
0 
0 
0 
0 
0 
0 
0 
0 
0 
0 
0 
0 
0 
0 
0 
0 
0 
0 
0 
0 
0 
0 
0 
0 
0 
1 
