# vtk DataFile Version 3.0
MOAB 5.1.1
ASCII
DATASET UNSTRUCTURED_GRID
POINTS 404 double
0 0 0
0 0 3.048
0 3.048 3.048
0 3.048 0
609.6 0 0
609.6 0 3.048
609.6 3.048 3.048
609.6 3.048 0
6.096 0 0
12.192 0 0
18.288 0 0
24.384 0 0
30.48 0 0
36.576 0 0
42.672 0 0
48.768 0 0
54.864 0 0
60.96 0 0
67.056 0 0
73.152 0 0
79.248 0 0
85.344 0 0
91.44 0 0
97.536 0 0
103.632 0 0
109.728 0 0
115.824 0 0
121.92 0 0
128.016 0 0
134.112 0 0
140.208 0 0
146.304 0 0
152.4 0 0
158.496 0 0
164.592 0 0
170.688 0 0
176.784 0 0
182.88 0 0
188.976 0 0
195.072 0 0
201.168 0 0
207.264 0 0
213.36 0 0
219.456 0 0
225.552 0 0
231.648 0 0
237.744 0 0
243.84 0 0
249.936 0 0
256.032 0 0
262.128 0 0
268.224 0 0
274.32 0 0
280.416 0 0
286.512 0 0
292.608 0 0
298.704 0 0
304.8 0 0
310.896 0 0
316.992 0 0
323.088 0 0
329.184 0 0
335.28 0 0
341.376 0 0
347.472 0 0
353.568 0 0
359.664 0 0
365.76 0 0
371.856 0 0
377.952 0 0
384.048 0 0
390.144 0 0
396.24 0 0
402.336 0 0
408.432 0 0
414.528 0 0
420.624 0 0
426.72 0 0
432.816 0 0
438.912 0 0
445.008 0 0
451.104 0 0
457.2 0 0
463.296 0 0
469.392 0 0
475.488 0 0
481.584 0 0
487.68 0 0
493.776 0 0
499.872 0 0
505.968 0 0
512.064 0 0
518.16 0 0
524.256 0 0
530.352 0 0
536.448 0 0
542.544 0 0
548.64 0 0
554.736 0 0
560.832 0 0
566.928 0 0
573.024 0 0
579.12 0 0
585.216 0 0
591.312 0 0
597.408 0 0
603.504 0 0
6.096 0 3.048
12.192 0 3.048
18.288 0 3.048
24.384 0 3.048
30.48 0 3.048
36.576 0 3.048
42.672 0 3.048
48.768 0 3.048
54.864 0 3.048
60.96 0 3.048
67.056 0 3.048
73.152 0 3.048
79.248 0 3.048
85.344 0 3.048
91.44 0 3.048
97.536 0 3.048
103.632 0 3.048
109.728 0 3.048
115.824 0 3.048
121.92 0 3.048
128.016 0 3.048
134.112 0 3.048
140.208 0 3.048
146.304 0 3.048
152.4 0 3.048
158.496 0 3.048
164.592 0 3.048
170.688 0 3.048
176.784 0 3.048
182.88 0 3.048
188.976 0 3.048
195.072 0 3.048
201.168 0 3.048
207.264 0 3.048
213.36 0 3.048
219.456 0 3.048
225.552 0 3.048
231.648 0 3.048
237.744 0 3.048
243.84 0 3.048
249.936 0 3.048
256.032 0 3.048
262.128 0 3.048
268.224 0 3.048
274.32 0 3.048
280.416 0 3.048
286.512 0 3.048
292.608 0 3.048
298.704 0 3.048
304.8 0 3.048
310.896 0 3.048
316.992 0 3.048
323.088 0 3.048
329.184 0 3.048
335.28 0 3.048
341.376 0 3.048
347.472 0 3.048
353.568 0 3.048
359.664 0 3.048
365.76 0 3.048
371.856 0 3.048
377.952 0 3.048
384.048 0 3.048
390.144 0 3.048
396.24 0 3.048
402.336 0 3.048
408.432 0 3.048
414.528 0 3.048
420.624 0 3.048
426.72 0 3.048
432.816 0 3.048
438.912 0 3.048
445.008 0 3.048
451.104 0 3.048
457.2 0 3.048
463.296 0 3.048
469.392 0 3.048
475.488 0 3.048
481.584 0 3.048
487.68 0 3.048
493.776 0 3.048
499.872 0 3.048
505.968 0 3.048
512.064 0 3.048
518.16 0 3.048
524.256 0 3.048
530.352 0 3.048
536.448 0 3.048
542.544 0 3.048
548.64 0 3.048
554.736 0 3.048
560.832 0 3.048
566.928 0 3.048
573.024 0 3.048
579.12 0 3.048
585.216 0 3.048
591.312 0 3.048
597.408 0 3.048
603.504 0 3.048
6.096 3.048 3.048
12.192 3.048 3.048
18.288 3.048 3.048
24.384 3.048 3.048
30.48 3.048 3.048
36.576 3.048 3.048
42.672 3.048 3.048
48.768 3.048 3.048
54.864 3.048 3.048
60.96 3.048 3.048
67.056 3.048 3.048
73.152 3.048 3.048
79.248 3.048 3.048
85.344 3.048 3.048
91.44 3.048 3.048
97.536 3.048 3.048
103.632 3.048 3.048
109.728 3.048 3.048
115.824 3.048 3.048
121.92 3.048 3.048
128.016 3.048 3.048
134.112 3.048 3.048
140.208 3.048 3.048
146.304 3.048 3.048
152.4 3.048 3.048
158.496 3.048 3.048
164.592 3.048 3.048
170.688 3.048 3.048
176.784 3.048 3.048
182.88 3.048 3.048
188.976 3.048 3.048
195.072 3.048 3.048
201.168 3.048 3.048
207.264 3.048 3.048
213.36 3.048 3.048
219.456 3.048 3.048
225.552 3.048 3.048
231.648 3.048 3.048
237.744 3.048 3.048
243.84 3.048 3.048
249.936 3.048 3.048
256.032 3.048 3.048
262.128 3.048 3.048
268.224 3.048 3.048
274.32 3.048 3.048
280.416 3.048 3.048
286.512 3.048 3.048
292.608 3.048 3.048
298.704 3.048 3.048
304.8 3.048 3.048
310.896 3.048 3.048
316.992 3.048 3.048
323.088 3.048 3.048
329.184 3.048 3.048
335.28 3.048 3.048
341.376 3.048 3.048
347.472 3.048 3.048
353.568 3.048 3.048
359.664 3.048 3.048
365.76 3.048 3.048
371.856 3.048 3.048
377.952 3.048 3.048
384.048 3.048 3.048
390.144 3.048 3.048
396.24 3.048 3.048
402.336 3.048 3.048
408.432 3.048 3.048
414.528 3.048 3.048
420.624 3.048 3.048
426.72 3.048 3.048
432.816 3.048 3.048
438.912 3.048 3.048
445.008 3.048 3.048
451.104 3.048 3.048
457.2 3.048 3.048
463.296 3.048 3.048
469.392 3.048 3.048
475.488 3.048 3.048
481.584 3.048 3.048
487.68 3.048 3.048
493.776 3.048 3.048
499.872 3.048 3.048
505.968 3.048 3.048
512.064 3.048 3.048
518.16 3.048 3.048
524.256 3.048 3.048
530.352 3.048 3.048
536.448 3.048 3.048
542.544 3.048 3.048
548.64 3.048 3.048
554.736 3.048 3.048
560.832 3.048 3.048
566.928 3.048 3.048
573.024 3.048 3.048
579.12 3.048 3.048
585.216 3.048 3.048
591.312 3.048 3.048
597.408 3.048 3.048
603.504 3.048 3.048
6.096 3.048 0
12.192 3.048 0
18.288 3.048 0
24.384 3.048 0
30.48 3.048 0
36.576 3.048 0
42.672 3.048 0
48.768 3.048 0
54.864 3.048 0
60.96 3.048 0
67.056 3.048 0
73.152 3.048 0
79.248 3.048 0
85.344 3.048 0
91.44 3.048 0
97.536 3.048 0
103.632 3.048 0
109.728 3.048 0
115.824 3.048 0
121.92 3.048 0
128.016 3.048 0
134.112 3.048 0
140.208 3.048 0
146.304 3.048 0
152.4 3.048 0
158.496 3.048 0
164.592 3.048 0
170.688 3.048 0
176.784 3.048 0
182.88 3.048 0
188.976 3.048 0
195.072 3.048 0
201.168 3.048 0
207.264 3.048 0
213.36 3.048 0
219.456 3.048 0
225.552 3.048 0
231.648 3.048 0
237.744 3.048 0
243.84 3.048 0
249.936 3.048 0
256.032 3.048 0
262.128 3.048 0
268.224 3.048 0
274.32 3.048 0
280.416 3.048 0
286.512 3.048 0
292.608 3.048 0
298.704 3.048 0
304.8 3.048 0
310.896 3.048 0
316.992 3.048 0
323.088 3.048 0
329.184 3.048 0
335.28 3.048 0
341.376 3.048 0
347.472 3.048 0
353.568 3.048 0
359.664 3.048 0
365.76 3.048 0
371.856 3.048 0
377.952 3.048 0
384.048 3.048 0
390.144 3.048 0
396.24 3.048 0
402.336 3.048 0
408.432 3.048 0
414.528 3.048 0
420.624 3.048 0
426.72 3.048 0
432.816 3.048 0
438.912 3.048 0
445.008 3.048 0
451.104 3.048 0
457.2 3.048 0
463.296 3.048 0
469.392 3.048 0
475.488 3.048 0
481.584 3.048 0
487.68 3.048 0
493.776 3.048 0
499.872 3.048 0
505.968 3.048 0
512.064 3.048 0
518.16 3.048 0
524.256 3.048 0
530.352 3.048 0
536.448 3.048 0
542.544 3.048 0
548.64 3.048 0
554.736 3.048 0
560.832 3.048 0
566.928 3.048 0
573.024 3.048 0
579.12 3.048 0
585.216 3.048 0
591.312 3.048 0
597.408 3.048 0
603.504 3.048 0
CELLS 100 900
8 2 1 0 3 206 107 8 305
8 206 107 8 305 207 108 9 306
8 207 108 9 306 208 109 10 307
8 208 109 10 307 209 110 11 308
8 209 110 11 308 210 111 12 309
8 210 111 12 309 211 112 13 310
8 211 112 13 310 212 113 14 311
8 212 113 14 311 213 114 15 312
8 213 114 15 312 214 115 16 313
8 214 115 16 313 215 116 17 314
8 215 116 17 314 216 117 18 315
8 216 117 18 315 217 118 19 316
8 217 118 19 316 218 119 20 317
8 218 119 20 317 219 120 21 318
8 219 120 21 318 220 121 22 319
8 220 121 22 319 221 122 23 320
8 221 122 23 320 222 123 24 321
8 222 123 24 321 223 124 25 322
8 223 124 25 322 224 125 26 323
8 224 125 26 323 225 126 27 324
8 225 126 27 324 226 127 28 325
8 226 127 28 325 227 128 29 326
8 227 128 29 326 228 129 30 327
8 228 129 30 327 229 130 31 328
8 229 130 31 328 230 131 32 329
8 230 131 32 329 231 132 33 330
8 231 132 33 330 232 133 34 331
8 232 133 34 331 233 134 35 332
8 233 134 35 332 234 135 36 333
8 234 135 36 333 235 136 37 334
8 235 136 37 334 236 137 38 335
8 236 137 38 335 237 138 39 336
8 237 138 39 336 238 139 40 337
8 238 139 40 337 239 140 41 338
8 239 140 41 338 240 141 42 339
8 240 141 42 339 241 142 43 340
8 241 142 43 340 242 143 44 341
8 242 143 44 341 243 144 45 342
8 243 144 45 342 244 145 46 343
8 244 145 46 343 245 146 47 344
8 245 146 47 344 246 147 48 345
8 246 147 48 345 247 148 49 346
8 247 148 49 346 248 149 50 347
8 248 149 50 347 249 150 51 348
8 249 150 51 348 250 151 52 349
8 250 151 52 349 251 152 53 350
8 251 152 53 350 252 153 54 351
8 252 153 54 351 253 154 55 352
8 253 154 55 352 254 155 56 353
8 254 155 56 353 255 156 57 354
8 255 156 57 354 256 157 58 355
8 256 157 58 355 257 158 59 356
8 257 158 59 356 258 159 60 357
8 258 159 60 357 259 160 61 358
8 259 160 61 358 260 161 62 359
8 260 161 62 359 261 162 63 360
8 261 162 63 360 262 163 64 361
8 262 163 64 361 263 164 65 362
8 263 164 65 362 264 165 66 363
8 264 165 66 363 265 166 67 364
8 265 166 67 364 266 167 68 365
8 266 167 68 365 267 168 69 366
8 267 168 69 366 268 169 70 367
8 268 169 70 367 269 170 71 368
8 269 170 71 368 270 171 72 369
8 270 171 72 369 271 172 73 370
8 271 172 73 370 272 173 74 371
8 272 173 74 371 273 174 75 372
8 273 174 75 372 274 175 76 373
8 274 175 76 373 275 176 77 374
8 275 176 77 374 276 177 78 375
8 276 177 78 375 277 178 79 376
8 277 178 79 376 278 179 80 377
8 278 179 80 377 279 180 81 378
8 279 180 81 378 280 181 82 379
8 280 181 82 379 281 182 83 380
8 281 182 83 380 282 183 84 381
8 282 183 84 381 283 184 85 382
8 283 184 85 382 284 185 86 383
8 284 185 86 383 285 186 87 384
8 285 186 87 384 286 187 88 385
8 286 187 88 385 287 188 89 386
8 287 188 89 386 288 189 90 387
8 288 189 90 387 289 190 91 388
8 289 190 91 388 290 191 92 389
8 290 191 92 389 291 192 93 390
8 291 192 93 390 292 193 94 391
8 292 193 94 391 293 194 95 392
8 293 194 95 392 294 195 96 393
8 294 195 96 393 295 196 97 394
8 295 196 97 394 296 197 98 395
8 296 197 98 395 297 198 99 396
8 297 198 99 396 298 199 100 397
8 298 199 100 397 299 200 101 398
8 299 200 101 398 300 201 102 399
8 300 201 102 399 301 202 103 400
8 301 202 103 400 302 203 104 401
8 302 203 104 401 303 204 105 402
8 303 204 105 402 304 205 106 403
8 304 205 106 403 6 5 4 7
CELL_TYPES 100
12
12
12
12
12
12
12
12
12
12
12
12
12
12
12
12
12
12
12
12
12
12
12
12
12
12
12
12
12
12
12
12
12
12
12
12
12
12
12
12
12
12
12
12
12
12
12
12
12
12
12
12
12
12
12
12
12
12
12
12
12
12
12
12
12
12
12
12
12
12
12
12
12
12
12
12
12
12
12
12
12
12
12
12
12
12
12
12
12
12
12
12
12
12
12
12
12
12
12
12
POINT_DATA 404
SCALARS GLOBAL_ID int 1
LOOKUP_TABLE default
0 
1 
2 
3 
4 
5 
6 
7 
8 
9 
10 
11 
12 
13 
14 
15 
16 
17 
18 
19 
20 
21 
22 
23 
24 
25 
26 
27 
28 
29 
30 
31 
32 
33 
34 
35 
36 
37 
38 
39 
40 
41 
42 
43 
44 
45 
46 
47 
48 
49 
50 
51 
52 
53 
54 
55 
56 
57 
58 
59 
60 
61 
62 
63 
64 
65 
66 
67 
68 
69 
70 
71 
72 
73 
74 
75 
76 
77 
78 
79 
80 
81 
82 
83 
84 
85 
86 
87 
88 
89 
90 
91 
92 
93 
94 
95 
96 
97 
98 
99 
100 
101 
102 
103 
104 
105 
106 
107 
108 
109 
110 
111 
112 
113 
114 
115 
116 
117 
118 
119 
120 
121 
122 
123 
124 
125 
126 
127 
128 
129 
130 
131 
132 
133 
134 
135 
136 
137 
138 
139 
140 
141 
142 
143 
144 
145 
146 
147 
148 
149 
150 
151 
152 
153 
154 
155 
156 
157 
158 
159 
160 
161 
162 
163 
164 
165 
166 
167 
168 
169 
170 
171 
172 
173 
174 
175 
176 
177 
178 
179 
180 
181 
182 
183 
184 
185 
186 
187 
188 
189 
190 
191 
192 
193 
194 
195 
196 
197 
198 
199 
200 
201 
202 
203 
204 
205 
206 
207 
208 
209 
210 
211 
212 
213 
214 
215 
216 
217 
218 
219 
220 
221 
222 
223 
224 
225 
226 
227 
228 
229 
230 
231 
232 
233 
234 
235 
236 
237 
238 
239 
240 
241 
242 
243 
244 
245 
246 
247 
248 
249 
250 
251 
252 
253 
254 
255 
256 
257 
258 
259 
260 
261 
262 
263 
264 
265 
266 
267 
268 
269 
270 
271 
272 
273 
274 
275 
276 
277 
278 
279 
280 
281 
282 
283 
284 
285 
286 
287 
288 
289 
290 
291 
292 
293 
294 
295 
296 
297 
298 
299 
300 
301 
302 
303 
304 
305 
306 
307 
308 
309 
310 
311 
312 
313 
314 
315 
316 
317 
318 
319 
320 
321 
322 
323 
324 
325 
326 
327 
328 
329 
330 
331 
332 
333 
334 
335 
336 
337 
338 
339 
340 
341 
342 
343 
344 
345 
346 
347 
348 
349 
350 
351 
352 
353 
354 
355 
356 
357 
358 
359 
360 
361 
362 
363 
364 
365 
366 
367 
368 
369 
370 
371 
372 
373 
374 
375 
376 
377 
378 
379 
380 
381 
382 
383 
384 
385 
386 
387 
388 
389 
390 
391 
392 
393 
394 
395 
396 
397 
398 
399 
400 
401 
402 
403 
VECTORS NODES double
0 0 0 
0 0 3.048 
0 3.048 3.048 
0 3.048 0 
609.6 0 0 
609.6 0 3.048 
609.6 3.048 3.048 
609.6 3.048 0 
6.096 0 0 
12.192 0 0 
18.288 0 0 
24.384 0 0 
30.48 0 0 
36.576 0 0 
42.672 0 0 
48.768 0 0 
54.864 0 0 
60.96 0 0 
67.056 0 0 
73.152 0 0 
79.248 0 0 
85.344 0 0 
91.44 0 0 
97.536 0 0 
103.632 0 0 
109.728 0 0 
115.824 0 0 
121.92 0 0 
128.016 0 0 
134.112 0 0 
140.208 0 0 
146.304 0 0 
152.4 0 0 
158.496 0 0 
164.592 0 0 
170.688 0 0 
176.784 0 0 
182.88 0 0 
188.976 0 0 
195.072 0 0 
201.168 0 0 
207.264 0 0 
213.36 0 0 
219.456 0 0 
225.552 0 0 
231.648 0 0 
237.744 0 0 
243.84 0 0 
249.936 0 0 
256.032 0 0 
262.128 0 0 
268.224 0 0 
274.32 0 0 
280.416 0 0 
286.512 0 0 
292.608 0 0 
298.704 0 0 
304.8 0 0 
310.896 0 0 
316.992 0 0 
323.088 0 0 
329.184 0 0 
335.28 0 0 
341.376 0 0 
347.472 0 0 
353.568 0 0 
359.664 0 0 
365.76 0 0 
371.856 0 0 
377.952 0 0 
384.048 0 0 
390.144 0 0 
396.24 0 0 
402.336 0 0 
408.432 0 0 
414.528 0 0 
420.624 0 0 
426.72 0 0 
432.816 0 0 
438.912 0 0 
445.008 0 0 
451.104 0 0 
457.2 0 0 
463.296 0 0 
469.392 0 0 
475.488 0 0 
481.584 0 0 
487.68 0 0 
493.776 0 0 
499.872 0 0 
505.968 0 0 
512.064 0 0 
518.16 0 0 
524.256 0 0 
530.352 0 0 
536.448 0 0 
542.544 0 0 
548.64 0 0 
554.736 0 0 
560.832 0 0 
566.928 0 0 
573.024 0 0 
579.12 0 0 
585.216 0 0 
591.312 0 0 
597.408 0 0 
603.504 0 0 
6.096 0 3.048 
12.192 0 3.048 
18.288 0 3.048 
24.384 0 3.048 
30.48 0 3.048 
36.576 0 3.048 
42.672 0 3.048 
48.768 0 3.048 
54.864 0 3.048 
60.96 0 3.048 
67.056 0 3.048 
73.152 0 3.048 
79.248 0 3.048 
85.344 0 3.048 
91.44 0 3.048 
97.536 0 3.048 
103.632 0 3.048 
109.728 0 3.048 
115.824 0 3.048 
121.92 0 3.048 
128.016 0 3.048 
134.112 0 3.048 
140.208 0 3.048 
146.304 0 3.048 
152.4 0 3.048 
158.496 0 3.048 
164.592 0 3.048 
170.688 0 3.048 
176.784 0 3.048 
182.88 0 3.048 
188.976 0 3.048 
195.072 0 3.048 
201.168 0 3.048 
207.264 0 3.048 
213.36 0 3.048 
219.456 0 3.048 
225.552 0 3.048 
231.648 0 3.048 
237.744 0 3.048 
243.84 0 3.048 
249.936 0 3.048 
256.032 0 3.048 
262.128 0 3.048 
268.224 0 3.048 
274.32 0 3.048 
280.416 0 3.048 
286.512 0 3.048 
292.608 0 3.048 
298.704 0 3.048 
304.8 0 3.048 
310.896 0 3.048 
316.992 0 3.048 
323.088 0 3.048 
329.184 0 3.048 
335.28 0 3.048 
341.376 0 3.048 
347.472 0 3.048 
353.568 0 3.048 
359.664 0 3.048 
365.76 0 3.048 
371.856 0 3.048 
377.952 0 3.048 
384.048 0 3.048 
390.144 0 3.048 
396.24 0 3.048 
402.336 0 3.048 
408.432 0 3.048 
414.528 0 3.048 
420.624 0 3.048 
426.72 0 3.048 
432.816 0 3.048 
438.912 0 3.048 
445.008 0 3.048 
451.104 0 3.048 
457.2 0 3.048 
463.296 0 3.048 
469.392 0 3.048 
475.488 0 3.048 
481.584 0 3.048 
487.68 0 3.048 
493.776 0 3.048 
499.872 0 3.048 
505.968 0 3.048 
512.064 0 3.048 
518.16 0 3.048 
524.256 0 3.048 
530.352 0 3.048 
536.448 0 3.048 
542.544 0 3.048 
548.64 0 3.048 
554.736 0 3.048 
560.832 0 3.048 
566.928 0 3.048 
573.024 0 3.048 
579.12 0 3.048 
585.216 0 3.048 
591.312 0 3.048 
597.408 0 3.048 
603.504 0 3.048 
6.096 3.048 3.048 
12.192 3.048 3.048 
18.288 3.048 3.048 
24.384 3.048 3.048 
30.48 3.048 3.048 
36.576 3.048 3.048 
42.672 3.048 3.048 
48.768 3.048 3.048 
54.864 3.048 3.048 
60.96 3.048 3.048 
67.056 3.048 3.048 
73.152 3.048 3.048 
79.248 3.048 3.048 
85.344 3.048 3.048 
91.44 3.048 3.048 
97.536 3.048 3.048 
103.632 3.048 3.048 
109.728 3.048 3.048 
115.824 3.048 3.048 
121.92 3.048 3.048 
128.016 3.048 3.048 
134.112 3.048 3.048 
140.208 3.048 3.048 
146.304 3.048 3.048 
152.4 3.048 3.048 
158.496 3.048 3.048 
164.592 3.048 3.048 
170.688 3.048 3.048 
176.784 3.048 3.048 
182.88 3.048 3.048 
188.976 3.048 3.048 
195.072 3.048 3.048 
201.168 3.048 3.048 
207.264 3.048 3.048 
213.36 3.048 3.048 
219.456 3.048 3.048 
225.552 3.048 3.048 
231.648 3.048 3.048 
237.744 3.048 3.048 
243.84 3.048 3.048 
249.936 3.048 3.048 
256.032 3.048 3.048 
262.128 3.048 3.048 
268.224 3.048 3.048 
274.32 3.048 3.048 
280.416 3.048 3.048 
286.512 3.048 3.048 
292.608 3.048 3.048 
298.704 3.048 3.048 
304.8 3.048 3.048 
310.896 3.048 3.048 
316.992 3.048 3.048 
323.088 3.048 3.048 
329.184 3.048 3.048 
335.28 3.048 3.048 
341.376 3.048 3.048 
347.472 3.048 3.048 
353.568 3.048 3.048 
359.664 3.048 3.048 
365.76 3.048 3.048 
371.856 3.048 3.048 
377.952 3.048 3.048 
384.048 3.048 3.048 
390.144 3.048 3.048 
396.24 3.048 3.048 
402.336 3.048 3.048 
408.432 3.048 3.048 
414.528 3.048 3.048 
420.624 3.048 3.048 
426.72 3.048 3.048 
432.816 3.048 3.048 
438.912 3.048 3.048 
445.008 3.048 3.048 
451.104 3.048 3.048 
457.2 3.048 3.048 
463.296 3.048 3.048 
469.392 3.048 3.048 
475.488 3.048 3.048 
481.584 3.048 3.048 
487.68 3.048 3.048 
493.776 3.048 3.048 
499.872 3.048 3.048 
505.968 3.048 3.048 
512.064 3.048 3.048 
518.16 3.048 3.048 
524.256 3.048 3.048 
530.352 3.048 3.048 
536.448 3.048 3.048 
542.544 3.048 3.048 
548.64 3.048 3.048 
554.736 3.048 3.048 
560.832 3.048 3.048 
566.928 3.048 3.048 
573.024 3.048 3.048 
579.12 3.048 3.048 
585.216 3.048 3.048 
591.312 3.048 3.048 
597.408 3.048 3.048 
603.504 3.048 3.048 
6.096 3.048 0 
12.192 3.048 0 
18.288 3.048 0 
24.384 3.048 0 
30.48 3.048 0 
36.576 3.048 0 
42.672 3.048 0 
48.768 3.048 0 
54.864 3.048 0 
60.96 3.048 0 
67.056 3.048 0 
73.152 3.048 0 
79.248 3.048 0 
85.344 3.048 0 
91.44 3.048 0 
97.536 3.048 0 
103.632 3.048 0 
109.728 3.048 0 
115.824 3.048 0 
121.92 3.048 0 
128.016 3.048 0 
134.112 3.048 0 
140.208 3.048 0 
146.304 3.048 0 
152.4 3.048 0 
158.496 3.048 0 
164.592 3.048 0 
170.688 3.048 0 
176.784 3.048 0 
182.88 3.048 0 
188.976 3.048 0 
195.072 3.048 0 
201.168 3.048 0 
207.264 3.048 0 
213.36 3.048 0 
219.456 3.048 0 
225.552 3.048 0 
231.648 3.048 0 
237.744 3.048 0 
243.84 3.048 0 
249.936 3.048 0 
256.032 3.048 0 
262.128 3.048 0 
268.224 3.048 0 
274.32 3.048 0 
280.416 3.048 0 
286.512 3.048 0 
292.608 3.048 0 
298.704 3.048 0 
304.8 3.048 0 
310.896 3.048 0 
316.992 3.048 0 
323.088 3.048 0 
329.184 3.048 0 
335.28 3.048 0 
341.376 3.048 0 
347.472 3.048 0 
353.568 3.048 0 
359.664 3.048 0 
365.76 3.048 0 
371.856 3.048 0 
377.952 3.048 0 
384.048 3.048 0 
390.144 3.048 0 
396.24 3.048 0 
402.336 3.048 0 
408.432 3.048 0 
414.528 3.048 0 
420.624 3.048 0 
426.72 3.048 0 
432.816 3.048 0 
438.912 3.048 0 
445.008 3.048 0 
451.104 3.048 0 
457.2 3.048 0 
463.296 3.048 0 
469.392 3.048 0 
475.488 3.048 0 
481.584 3.048 0 
487.68 3.048 0 
493.776 3.048 0 
499.872 3.048 0 
505.968 3.048 0 
512.064 3.048 0 
518.16 3.048 0 
524.256 3.048 0 
530.352 3.048 0 
536.448 3.048 0 
542.544 3.048 0 
548.64 3.048 0 
554.736 3.048 0 
560.832 3.048 0 
566.928 3.048 0 
573.024 3.048 0 
579.12 3.048 0 
585.216 3.048 0 
591.312 3.048 0 
597.408 3.048 0 
603.504 3.048 0 
VECTORS centroid_nodes double
0 0 0 
0 0 3.048 
0 3.048 3.048 
0 3.048 0 
609.6 0 0 
609.6 0 3.048 
609.6 3.048 3.048 
609.6 3.048 0 
6.096 0 0 
12.192 0 0 
18.288 0 0 
24.384 0 0 
30.48 0 0 
36.576 0 0 
42.672 0 0 
48.768 0 0 
54.864 0 0 
60.96 0 0 
67.056 0 0 
73.152 0 0 
79.248 0 0 
85.344 0 0 
91.44 0 0 
97.536 0 0 
103.632 0 0 
109.728 0 0 
115.824 0 0 
121.92 0 0 
128.016 0 0 
134.112 0 0 
140.208 0 0 
146.304 0 0 
152.4 0 0 
158.496 0 0 
164.592 0 0 
170.688 0 0 
176.784 0 0 
182.88 0 0 
188.976 0 0 
195.072 0 0 
201.168 0 0 
207.264 0 0 
213.36 0 0 
219.456 0 0 
225.552 0 0 
231.648 0 0 
237.744 0 0 
243.84 0 0 
249.936 0 0 
256.032 0 0 
262.128 0 0 
268.224 0 0 
274.32 0 0 
280.416 0 0 
286.512 0 0 
292.608 0 0 
298.704 0 0 
304.8 0 0 
310.896 0 0 
316.992 0 0 
323.088 0 0 
329.184 0 0 
335.28 0 0 
341.376 0 0 
347.472 0 0 
353.568 0 0 
359.664 0 0 
365.76 0 0 
371.856 0 0 
377.952 0 0 
384.048 0 0 
390.144 0 0 
396.24 0 0 
402.336 0 0 
408.432 0 0 
414.528 0 0 
420.624 0 0 
426.72 0 0 
432.816 0 0 
438.912 0 0 
445.008 0 0 
451.104 0 0 
457.2 0 0 
463.296 0 0 
469.392 0 0 
475.488 0 0 
481.584 0 0 
487.68 0 0 
493.776 0 0 
499.872 0 0 
505.968 0 0 
512.064 0 0 
518.16 0 0 
524.256 0 0 
530.352 0 0 
536.448 0 0 
542.544 0 0 
548.64 0 0 
554.736 0 0 
560.832 0 0 
566.928 0 0 
573.024 0 0 
579.12 0 0 
585.216 0 0 
591.312 0 0 
597.408 0 0 
603.504 0 0 
6.096 0 3.048 
12.192 0 3.048 
18.288 0 3.048 
24.384 0 3.048 
30.48 0 3.048 
36.576 0 3.048 
42.672 0 3.048 
48.768 0 3.048 
54.864 0 3.048 
60.96 0 3.048 
67.056 0 3.048 
73.152 0 3.048 
79.248 0 3.048 
85.344 0 3.048 
91.44 0 3.048 
97.536 0 3.048 
103.632 0 3.048 
109.728 0 3.048 
115.824 0 3.048 
121.92 0 3.048 
128.016 0 3.048 
134.112 0 3.048 
140.208 0 3.048 
146.304 0 3.048 
152.4 0 3.048 
158.496 0 3.048 
164.592 0 3.048 
170.688 0 3.048 
176.784 0 3.048 
182.88 0 3.048 
188.976 0 3.048 
195.072 0 3.048 
201.168 0 3.048 
207.264 0 3.048 
213.36 0 3.048 
219.456 0 3.048 
225.552 0 3.048 
231.648 0 3.048 
237.744 0 3.048 
243.84 0 3.048 
249.936 0 3.048 
256.032 0 3.048 
262.128 0 3.048 
268.224 0 3.048 
274.32 0 3.048 
280.416 0 3.048 
286.512 0 3.048 
292.608 0 3.048 
298.704 0 3.048 
304.8 0 3.048 
310.896 0 3.048 
316.992 0 3.048 
323.088 0 3.048 
329.184 0 3.048 
335.28 0 3.048 
341.376 0 3.048 
347.472 0 3.048 
353.568 0 3.048 
359.664 0 3.048 
365.76 0 3.048 
371.856 0 3.048 
377.952 0 3.048 
384.048 0 3.048 
390.144 0 3.048 
396.24 0 3.048 
402.336 0 3.048 
408.432 0 3.048 
414.528 0 3.048 
420.624 0 3.048 
426.72 0 3.048 
432.816 0 3.048 
438.912 0 3.048 
445.008 0 3.048 
451.104 0 3.048 
457.2 0 3.048 
463.296 0 3.048 
469.392 0 3.048 
475.488 0 3.048 
481.584 0 3.048 
487.68 0 3.048 
493.776 0 3.048 
499.872 0 3.048 
505.968 0 3.048 
512.064 0 3.048 
518.16 0 3.048 
524.256 0 3.048 
530.352 0 3.048 
536.448 0 3.048 
542.544 0 3.048 
548.64 0 3.048 
554.736 0 3.048 
560.832 0 3.048 
566.928 0 3.048 
573.024 0 3.048 
579.12 0 3.048 
585.216 0 3.048 
591.312 0 3.048 
597.408 0 3.048 
603.504 0 3.048 
6.096 3.048 3.048 
12.192 3.048 3.048 
18.288 3.048 3.048 
24.384 3.048 3.048 
30.48 3.048 3.048 
36.576 3.048 3.048 
42.672 3.048 3.048 
48.768 3.048 3.048 
54.864 3.048 3.048 
60.96 3.048 3.048 
67.056 3.048 3.048 
73.152 3.048 3.048 
79.248 3.048 3.048 
85.344 3.048 3.048 
91.44 3.048 3.048 
97.536 3.048 3.048 
103.632 3.048 3.048 
109.728 3.048 3.048 
115.824 3.048 3.048 
121.92 3.048 3.048 
128.016 3.048 3.048 
134.112 3.048 3.048 
140.208 3.048 3.048 
146.304 3.048 3.048 
152.4 3.048 3.048 
158.496 3.048 3.048 
164.592 3.048 3.048 
170.688 3.048 3.048 
176.784 3.048 3.048 
182.88 3.048 3.048 
188.976 3.048 3.048 
195.072 3.048 3.048 
201.168 3.048 3.048 
207.264 3.048 3.048 
213.36 3.048 3.048 
219.456 3.048 3.048 
225.552 3.048 3.048 
231.648 3.048 3.048 
237.744 3.048 3.048 
243.84 3.048 3.048 
249.936 3.048 3.048 
256.032 3.048 3.048 
262.128 3.048 3.048 
268.224 3.048 3.048 
274.32 3.048 3.048 
280.416 3.048 3.048 
286.512 3.048 3.048 
292.608 3.048 3.048 
298.704 3.048 3.048 
304.8 3.048 3.048 
310.896 3.048 3.048 
316.992 3.048 3.048 
323.088 3.048 3.048 
329.184 3.048 3.048 
335.28 3.048 3.048 
341.376 3.048 3.048 
347.472 3.048 3.048 
353.568 3.048 3.048 
359.664 3.048 3.048 
365.76 3.048 3.048 
371.856 3.048 3.048 
377.952 3.048 3.048 
384.048 3.048 3.048 
390.144 3.048 3.048 
396.24 3.048 3.048 
402.336 3.048 3.048 
408.432 3.048 3.048 
414.528 3.048 3.048 
420.624 3.048 3.048 
426.72 3.048 3.048 
432.816 3.048 3.048 
438.912 3.048 3.048 
445.008 3.048 3.048 
451.104 3.048 3.048 
457.2 3.048 3.048 
463.296 3.048 3.048 
469.392 3.048 3.048 
475.488 3.048 3.048 
481.584 3.048 3.048 
487.68 3.048 3.048 
493.776 3.048 3.048 
499.872 3.048 3.048 
505.968 3.048 3.048 
512.064 3.048 3.048 
518.16 3.048 3.048 
524.256 3.048 3.048 
530.352 3.048 3.048 
536.448 3.048 3.048 
542.544 3.048 3.048 
548.64 3.048 3.048 
554.736 3.048 3.048 
560.832 3.048 3.048 
566.928 3.048 3.048 
573.024 3.048 3.048 
579.12 3.048 3.048 
585.216 3.048 3.048 
591.312 3.048 3.048 
597.408 3.048 3.048 
603.504 3.048 3.048 
6.096 3.048 0 
12.192 3.048 0 
18.288 3.048 0 
24.384 3.048 0 
30.48 3.048 0 
36.576 3.048 0 
42.672 3.048 0 
48.768 3.048 0 
54.864 3.048 0 
60.96 3.048 0 
67.056 3.048 0 
73.152 3.048 0 
79.248 3.048 0 
85.344 3.048 0 
91.44 3.048 0 
97.536 3.048 0 
103.632 3.048 0 
109.728 3.048 0 
115.824 3.048 0 
121.92 3.048 0 
128.016 3.048 0 
134.112 3.048 0 
140.208 3.048 0 
146.304 3.048 0 
152.4 3.048 0 
158.496 3.048 0 
164.592 3.048 0 
170.688 3.048 0 
176.784 3.048 0 
182.88 3.048 0 
188.976 3.048 0 
195.072 3.048 0 
201.168 3.048 0 
207.264 3.048 0 
213.36 3.048 0 
219.456 3.048 0 
225.552 3.048 0 
231.648 3.048 0 
237.744 3.048 0 
243.84 3.048 0 
249.936 3.048 0 
256.032 3.048 0 
262.128 3.048 0 
268.224 3.048 0 
274.32 3.048 0 
280.416 3.048 0 
286.512 3.048 0 
292.608 3.048 0 
298.704 3.048 0 
304.8 3.048 0 
310.896 3.048 0 
316.992 3.048 0 
323.088 3.048 0 
329.184 3.048 0 
335.28 3.048 0 
341.376 3.048 0 
347.472 3.048 0 
353.568 3.048 0 
359.664 3.048 0 
365.76 3.048 0 
371.856 3.048 0 
377.952 3.048 0 
384.048 3.048 0 
390.144 3.048 0 
396.24 3.048 0 
402.336 3.048 0 
408.432 3.048 0 
414.528 3.048 0 
420.624 3.048 0 
426.72 3.048 0 
432.816 3.048 0 
438.912 3.048 0 
445.008 3.048 0 
451.104 3.048 0 
457.2 3.048 0 
463.296 3.048 0 
469.392 3.048 0 
475.488 3.048 0 
481.584 3.048 0 
487.68 3.048 0 
493.776 3.048 0 
499.872 3.048 0 
505.968 3.048 0 
512.064 3.048 0 
518.16 3.048 0 
524.256 3.048 0 
530.352 3.048 0 
536.448 3.048 0 
542.544 3.048 0 
548.64 3.048 0 
554.736 3.048 0 
560.832 3.048 0 
566.928 3.048 0 
573.024 3.048 0 
579.12 3.048 0 
585.216 3.048 0 
591.312 3.048 0 
597.408 3.048 0 
603.504 3.048 0 
CELL_DATA 100
SCALARS GLOBAL_ID int 1
LOOKUP_TABLE default
0 
1 
2 
3 
4 
5 
6 
7 
8 
9 
10 
11 
12 
13 
14 
15 
16 
17 
18 
19 
20 
21 
22 
23 
24 
25 
26 
27 
28 
29 
30 
31 
32 
33 
34 
35 
36 
37 
38 
39 
40 
41 
42 
43 
44 
45 
46 
47 
48 
49 
50 
51 
52 
53 
54 
55 
56 
57 
58 
59 
60 
61 
62 
63 
64 
65 
66 
67 
68 
69 
70 
71 
72 
73 
74 
75 
76 
77 
78 
79 
80 
81 
82 
83 
84 
85 
86 
87 
88 
89 
90 
91 
92 
93 
94 
95 
96 
97 
98 
99 
VECTORS centroid_volumes double
3.048 1.524 1.524 
9.144 1.524 1.524 
15.24 1.524 1.524 
21.336 1.524 1.524 
27.432 1.524 1.524 
33.528 1.524 1.524 
39.624 1.524 1.524 
45.72 1.524 1.524 
51.816 1.524 1.524 
57.912 1.524 1.524 
64.008 1.524 1.524 
70.104 1.524 1.524 
76.2 1.524 1.524 
82.296 1.524 1.524 
88.392 1.524 1.524 
94.488 1.524 1.524 
100.584 1.524 1.524 
106.68 1.524 1.524 
112.776 1.524 1.524 
118.872 1.524 1.524 
124.968 1.524 1.524 
131.064 1.524 1.524 
137.16 1.524 1.524 
143.256 1.524 1.524 
149.352 1.524 1.524 
155.448 1.524 1.524 
161.544 1.524 1.524 
167.64 1.524 1.524 
173.736 1.524 1.524 
179.832 1.524 1.524 
185.928 1.524 1.524 
192.024 1.524 1.524 
198.12 1.524 1.524 
204.216 1.524 1.524 
210.312 1.524 1.524 
216.408 1.524 1.524 
222.504 1.524 1.524 
228.6 1.524 1.524 
234.696 1.524 1.524 
240.792 1.524 1.524 
246.888 1.524 1.524 
252.984 1.524 1.524 
259.08 1.524 1.524 
265.176 1.524 1.524 
271.272 1.524 1.524 
277.368 1.524 1.524 
283.464 1.524 1.524 
289.56 1.524 1.524 
295.656 1.524 1.524 
301.752 1.524 1.524 
307.848 1.524 1.524 
313.944 1.524 1.524 
320.04 1.524 1.524 
326.136 1.524 1.524 
332.232 1.524 1.524 
338.328 1.524 1.524 
344.424 1.524 1.524 
350.52 1.524 1.524 
356.616 1.524 1.524 
362.712 1.524 1.524 
368.808 1.524 1.524 
374.904 1.524 1.524 
381 1.524 1.524 
387.096 1.524 1.524 
393.192 1.524 1.524 
399.288 1.524 1.524 
405.384 1.524 1.524 
411.48 1.524 1.524 
417.576 1.524 1.524 
423.672 1.524 1.524 
429.768 1.524 1.524 
435.864 1.524 1.524 
441.96 1.524 1.524 
448.056 1.524 1.524 
454.152 1.524 1.524 
460.248 1.524 1.524 
466.344 1.524 1.524 
472.44 1.524 1.524 
478.536 1.524 1.524 
484.632 1.524 1.524 
490.728 1.524 1.524 
496.824 1.524 1.524 
502.92 1.524 1.524 
509.016 1.524 1.524 
515.112 1.524 1.524 
521.208 1.524 1.524 
527.304 1.524 1.524 
533.4 1.524 1.524 
539.496 1.524 1.524 
545.592 1.524 1.524 
551.688 1.524 1.524 
557.784 1.524 1.524 
563.88 1.524 1.524 
569.976 1.524 1.524 
576.072 1.524 1.524 
582.168 1.524 1.524 
588.264 1.524 1.524 
594.36 1.524 1.524 
600.456 1.524 1.524 
606.552 1.524 1.524 
SCALARS flux_grav_volumes double 1
LOOKUP_TABLE default
0 
0 
0 
0 
0 
0 
0 
0 
0 
0 
0 
0 
0 
0 
0 
0 
0 
0 
0 
0 
0 
0 
0 
0 
0 
0 
0 
0 
0 
0 
0 
0 
0 
0 
0 
0 
0 
0 
0 
0 
0 
0 
0 
0 
0 
0 
0 
0 
0 
0 
0 
0 
0 
0 
0 
0 
0 
0 
0 
0 
0 
0 
0 
0 
0 
0 
0 
0 
0 
0 
0 
0 
0 
0 
0 
0 
0 
0 
0 
0 
0 
0 
0 
0 
0 
0 
0 
0 
0 
0 
0 
0 
0 
0 
0 
0 
0 
0 
0 
0 
SCALARS flux_o_volumes double 1
LOOKUP_TABLE default
0 
0 
0 
0 
0 
0 
0 
0 
0 
0 
0 
0 
0 
0 
0 
0 
0 
0 
0 
0 
0 
0 
0 
0 
0 
0 
0 
0 
0 
0 
0 
0 
0 
0 
0 
0 
0 
0 
0 
0 
0 
0 
0 
0 
0 
0 
0 
0 
0 
0 
0 
0 
0 
0 
0 
0 
0 
0 
0 
0 
0 
0 
0 
0 
0 
0 
0 
0 
0 
0 
0 
0 
0 
0 
0 
0 
0 
0 
0 
0 
0 
0 
0 
0 
0 
0 
0 
0 
0 
0 
0 
0 
0 
0 
0 
0 
0 
0 
0 
0 
SCALARS flux_volumes double 1
LOOKUP_TABLE default
0 
0 
0 
0 
0 
0 
0 
0 
0 
0 
0 
0 
0 
0 
0 
0 
0 
0 
0 
0 
0 
0 
0 
0 
0 
0 
0 
0 
0 
0 
0 
0 
0 
0 
0 
0 
0 
0 
0 
0 
0 
0 
0 
0 
0 
0 
0 
0 
0 
0 
0 
0 
0 
0 
0 
0 
0 
0 
0 
0 
0 
0 
0 
0 
0 
0 
0 
0 
0 
0 
0 
0 
0 
0 
0 
0 
0 
0 
0 
0 
0 
0 
0 
0 
0 
0 
0 
0 
0 
0 
0 
0 
0 
0 
0 
0 
0 
0 
0 
0 
SCALARS flux_volumes_test double 1
LOOKUP_TABLE default
0 
0 
0 
0 
0 
0 
0 
0 
0 
0 
0 
0 
0 
0 
0 
0 
0 
0 
0 
0 
0 
0 
0 
0 
0 
0 
0 
0 
0 
0 
0 
0 
0 
0 
0 
0 
0 
0 
0 
0 
0 
0 
0 
0 
0 
0 
0 
0 
0 
0 
0 
0 
0 
0 
0 
0 
0 
0 
0 
0 
0 
0 
0 
0 
0 
0 
0 
0 
0 
0 
0 
0 
0 
0 
0 
0 
0 
0 
0 
0 
0 
0 
0 
0 
0 
0 
0 
0 
0 
0 
0 
0 
0 
0 
0 
0 
0 
0 
0 
0 
SCALARS flux_w_volumes double 1
LOOKUP_TABLE default
0 
0 
0 
0 
0 
0 
0 
0 
0 
0 
0 
0 
0 
0 
0 
0 
0 
0 
0 
0 
0 
0 
0 
0 
0 
0 
0 
0 
0 
0 
0 
0 
0 
0 
0 
0 
0 
0 
0 
0 
0 
0 
0 
0 
0 
0 
0 
0 
0 
0 
0 
0 
0 
0 
0 
0 
0 
0 
0 
0 
0 
0 
0 
0 
0 
0 
0 
0 
0 
0 
0 
0 
0 
0 
0 
0 
0 
0 
0 
0 
0 
0 
0 
0 
0 
0 
0 
0 
0 
0 
0 
0 
0 
0 
0 
0 
0 
0 
0 
0 
SCALARS fw_vol double 1
LOOKUP_TABLE default
0 
0 
0 
0 
0 
0 
0 
0 
0 
0 
0 
0 
0 
0 
0 
0 
0 
0 
0 
0 
0 
0 
0 
0 
0 
0 
0 
0 
0 
0 
0 
0 
0 
0 
0 
0 
0 
0 
0 
0 
0 
0 
0 
0 
0 
0 
0 
0 
0 
0 
0 
0 
0 
0 
0 
0 
0 
0 
0 
0 
0 
0 
0 
0 
0 
0 
0 
0 
0 
0 
0 
0 
0 
0 
0 
0 
0 
0 
0 
0 
0 
0 
0 
0 
0 
0 
0 
0 
0 
0 
0 
0 
0 
0 
0 
0 
0 
0 
0 
0 
SCALARS gama double 1
LOOKUP_TABLE default
10000 
10000 
10000 
10000 
10000 