# vtk DataFile Version 3.0
MOAB 5.1.1
ASCII
DATASET UNSTRUCTURED_GRID
POINTS 882 double
0 0 0
0 0 -60.96
243.83 0 -60.96
243.83 0 0
0 243.83 -60.96
0 243.83 0
243.83 243.83 0
243.83 243.83 -60.96
12.1915 0 -60.96
24.383 0 -60.96
36.5745 0 -60.96
48.766 0 -60.96
60.9575 0 -60.96
73.149 0 -60.96
85.3405 0 -60.96
97.532 0 -60.96
109.7235 0 -60.96
121.915 0 -60.96
134.1065 0 -60.96
146.298 0 -60.96
158.4895 0 -60.96
170.681 0 -60.96
182.8725 0 -60.96
195.064 0 -60.96
207.2555 0 -60.96
219.447 0 -60.96
231.6385 0 -60.96
12.1915 0 0
24.383 0 0
36.5745 0 0
48.766 0 0
60.9575 0 0
73.149 0 0
85.3405 0 0
97.532 0 0
109.7235 0 0
121.915 0 0
134.1065 0 0
146.298 0 0
158.4895 0 0
170.681 0 0
182.8725 0 0
195.064 0 0
207.2555 0 0
219.447 0 0
231.6385 0 0
12.1915 243.83 0
24.383 243.83 0
36.5745 243.83 0
48.766 243.83 0
60.9575 243.83 0
73.149 243.83 0
85.3405 243.83 0
97.532 243.83 0
109.7235 243.83 0
121.915 243.83 0
134.1065 243.83 0
146.298 243.83 0
158.4895 243.83 0
170.681 243.83 0
182.8725 243.83 0
195.064 243.83 0
207.2555 243.83 0
219.447 243.83 0
231.6385 243.83 0
231.6385 243.83 -60.96
219.447 243.83 -60.96
207.2555 243.83 -60.96
195.064 243.83 -60.96
182.8725 243.83 -60.96
170.681 243.83 -60.96
158.4895 243.83 -60.96
146.298 243.83 -60.96
134.1065 243.83 -60.96
121.915 243.83 -60.96
109.7235 243.83 -60.96
97.532 243.83 -60.96
85.3405 243.83 -60.96
73.149 243.83 -60.96
60.9575 243.83 -60.96
48.766 243.83 -60.96
36.5745 243.83 -60.96
24.383 243.83 -60.96
12.1915 243.83 -60.96
0 12.1915 -60.96
0 24.383 -60.96
0 36.5745 -60.96
0 48.766 -60.96
0 60.9575 -60.96
0 73.149 -60.96
0 85.3405 -60.96
0 97.532 -60.96
0 109.7235 -60.96
0 121.915 -60.96
0 134.1065 -60.96
0 146.298 -60.96
0 158.4895 -60.96
0 170.681 -60.96
0 182.8725 -60.96
0 195.064 -60.96
0 207.2555 -60.96
0 219.447 -60.96
0 231.6385 -60.96
0 12.1915 0
0 24.383 0
0 36.5745 0
0 48.766 0
0 60.9575 0
0 73.149 0
0 85.3405 0
0 97.532 0
0 109.7235 0
0 121.915 0
0 134.1065 0
0 146.298 0
0 158.4895 0
0 170.681 0
0 182.8725 0
0 195.064 0
0 207.2555 0
0 219.447 0
0 231.6385 0
243.83 12.1915 0
243.83 24.383 0
243.83 36.5745 0
243.83 48.766 0
243.83 60.9575 0
243.83 73.149 0
243.83 85.3405 0
243.83 97.532 0
243.83 109.7235 0
243.83 121.915 0
243.83 134.1065 0
243.83 146.298 0
243.83 158.4895 0
243.83 170.681 0
243.83 182.8725 0
243.83 195.064 0
243.83 207.2555 0
243.83 219.447 0
243.83 231.6385 0
243.83 12.1915 -60.96
243.83 24.383 -60.96
243.83 36.5745 -60.96
243.83 48.766 -60.96
243.83 60.9575 -60.96
243.83 73.149 -60.96
243.83 85.3405 -60.96
243.83 97.532 -60.96
243.83 109.7235 -60.96
243.83 121.915 -60.96
243.83 134.1065 -60.96
243.83 146.298 -60.96
243.83 158.4895 -60.96
243.83 170.681 -60.96
243.83 182.8725 -60.96
243.83 195.064 -60.96
243.83 207.2555 -60.96
243.83 219.447 -60.96
243.83 231.6385 -60.96
12.1915 12.1915 0
12.1915 24.383 0
12.1915 36.5745 0
12.1915 48.766 0
12.1915 60.9575 0
12.1915 73.149 0
12.1915 85.3405 0
12.1915 97.532 0
12.1915 109.7235 0
12.1915 121.915 0
12.1915 134.1065 0
12.1915 146.298 0
12.1915 158.4895 0
12.1915 170.681 0
12.1915 182.8725 0
12.1915 195.064 0
12.1915 207.2555 0
12.1915 219.447 0
12.1915 231.6385 0
24.383 12.1915 0
24.383 24.383 0
24.383 36.5745 0
24.383 48.766 0
24.383 60.9575 0
24.383 73.149 0
24.383 85.3405 0
24.383 97.532 0
24.383 109.7235 0
24.383 121.915 0
24.383 134.1065 0
24.383 146.298 0
24.383 158.4895 0
24.383 170.681 0
24.383 182.8725 0
24.383 195.064 0
24.383 207.2555 0
24.383 219.447 0
24.383 231.6385 0
36.5745 12.1915 0
36.5745 24.383 0
36.5745 36.5745 0
36.5745 48.766 0
36.5745 60.9575 0
36.5745 73.149 0
36.5745 85.3405 0
36.5745 97.532 0
36.5745 109.7235 0
36.5745 121.915 0
36.5745 134.1065 0
36.5745 146.298 0
36.5745 158.4895 0
36.5745 170.681 0
36.5745 182.8725 0
36.5745 195.064 0
36.5745 207.2555 0
36.5745 219.447 0
36.5745 231.6385 0
48.766 12.1915 0
48.766 24.383 0
48.766 36.5745 0
48.766 48.766 0
48.766 60.9575 0
48.766 73.149 0
48.766 85.3405 0
48.766 97.532 0
48.766 109.7235 0
48.766 121.915 0
48.766 134.1065 0
48.766 146.298 0
48.766 158.4895 0
48.766 170.681 0
48.766 182.8725 0
48.766 195.064 0
48.766 207.2555 0
48.766 219.447 0
48.766 231.6385 0
60.9575 12.1915 0
60.9575 24.383 0
60.9575 36.5745 0
60.9575 48.766 0
60.9575 60.9575 0
60.9575 73.149 0
60.9575 85.3405 0
60.9575 97.532 0
60.9575 109.7235 0
60.9575 121.915 0
60.9575 134.1065 0
60.9575 146.298 0
60.9575 158.4895 0
60.9575 170.681 0
60.9575 182.8725 0
60.9575 195.064 0
60.9575 207.2555 0
60.9575 219.447 0
60.9575 231.6385 0
73.149 12.1915 0
73.149 24.383 0
73.149 36.5745 0
73.149 48.766 0
73.149 60.9575 0
73.149 73.149 0
73.149 85.3405 0
73.149 97.532 0
73.149 109.7235 0
73.149 121.915 0
73.149 134.1065 0
73.149 146.298 0
73.149 158.4895 0
73.149 170.681 0
73.149 182.8725 0
73.149 195.064 0
73.149 207.2555 0
73.149 219.447 0
73.149 231.6385 0
85.3405 12.1915 0
85.3405 24.383 0
85.3405 36.5745 0
85.3405 48.766 0
85.3405 60.9575 0
85.3405 73.149 0
85.3405 85.3405 0
85.3405 97.532 0
85.3405 109.7235 0
85.3405 121.915 0
85.3405 134.1065 0
85.3405 146.298 0
85.3405 158.4895 0
85.3405 170.681 0
85.3405 182.8725 0
85.3405 195.064 0
85.3405 207.2555 0
85.3405 219.447 0
85.3405 231.6385 0
97.532 12.1915 0
97.532 24.383 0
97.532 36.5745 0
97.532 48.766 0
97.532 60.9575 0
97.532 73.149 0
97.532 85.3405 0
97.532 97.532 0
97.532 109.7235 0
97.532 121.915 0
97.532 134.1065 0
97.532 146.298 0
97.532 158.4895 0
97.532 170.681 0
97.532 182.8725 0
97.532 195.064 0
97.532 207.2555 0
97.532 219.447 0
97.532 231.6385 0
109.7235 12.1915 0
109.7235 24.383 0
109.7235 36.5745 0
109.7235 48.766 0
109.7235 60.9575 0
109.7235 73.149 0
109.7235 85.3405 0
109.7235 97.532 0
109.7235 109.7235 0
109.7235 121.915 0
109.7235 134.1065 0
109.7235 146.298 0
109.7235 158.4895 0
109.7235 170.681 0
109.7235 182.8725 0
109.7235 195.064 0
109.7235 207.2555 0
109.7235 219.447 0
109.7235 231.6385 0
121.915 12.1915 0
121.915 24.383 0
121.915 36.5745 0
121.915 48.766 0
121.915 60.9575 0
121.915 73.149 0
121.915 85.3405 0
121.915 97.532 0
121.915 109.7235 0
121.915 121.915 0
121.915 134.1065 0
121.915 146.298 0
121.915 158.4895 0
121.915 170.681 0
121.915 182.8725 0
121.915 195.064 0
121.915 207.2555 0
121.915 219.447 0
121.915 231.6385 0
134.1065 12.1915 0
134.1065 24.383 0
134.1065 36.5745 0
134.1065 48.766 0
134.1065 60.9575 0
134.1065 73.149 0
134.1065 85.3405 0
134.1065 97.532 0
134.1065 109.7235 0
134.1065 121.915 0
134.1065 134.1065 0
134.1065 146.298 0
134.1065 158.4895 0
134.1065 170.681 0
134.1065 182.8725 0
134.1065 195.064 0
134.1065 207.2555 0
134.1065 219.447 0
134.1065 231.6385 0
146.298 12.1915 0
146.298 24.383 0
146.298 36.5745 0
146.298 48.766 0
146.298 60.9575 0
146.298 73.149 0
146.298 85.3405 0
146.298 97.532 0
146.298 109.7235 0
146.298 121.915 0
146.298 134.1065 0
146.298 146.298 0
146.298 158.4895 0
146.298 170.681 0
146.298 182.8725 0
146.298 195.064 0
146.298 207.2555 0
146.298 219.447 0
146.298 231.6385 0
158.4895 12.1915 0
158.4895 24.383 0
158.4895 36.5745 0
158.4895 48.766 0
158.4895 60.9575 0
158.4895 73.149 0
158.4895 85.3405 0
158.4895 97.532 0
158.4895 109.7235 0
158.4895 121.915 0
158.4895 134.1065 0
158.4895 146.298 0
158.4895 158.4895 0
158.4895 170.681 0
158.4895 182.8725 0
158.4895 195.064 0
158.4895 207.2555 0
158.4895 219.447 0
158.4895 231.6385 0
170.681 12.1915 0
170.681 24.383 0
170.681 36.5745 0
170.681 48.766 0
170.681 60.9575 0
170.681 73.149 0
170.681 85.3405 0
170.681 97.532 0
170.681 109.7235 0
170.681 121.915 0
170.681 134.1065 0
170.681 146.298 0
170.681 158.4895 0
170.681 170.681 0
170.681 182.8725 0
170.681 195.064 0
170.681 207.2555 0
170.681 219.447 0
170.681 231.6385 0
182.8725 12.1915 0
182.8725 24.383 0
182.8725 36.5745 0
182.8725 48.766 0
182.8725 60.9575 0
182.8725 73.149 0
182.8725 85.3405 0
182.8725 97.532 0
182.8725 109.7235 0
182.8725 121.915 0
182.8725 134.1065 0
182.8725 146.298 0
182.8725 158.4895 0
182.8725 170.681 0
182.8725 182.8725 0
182.8725 195.064 0
182.8725 207.2555 0
182.8725 219.447 0
182.8725 231.6385 0
195.064 12.1915 0
195.064 24.383 0
195.064 36.5745 0
195.064 48.766 0
195.064 60.9575 0
195.064 73.149 0
195.064 85.3405 0
195.064 97.532 0
195.064 109.7235 0
195.064 121.915 0
195.064 134.1065 0
195.064 146.298 0
195.064 158.4895 0
195.064 170.681 0
195.064 182.8725 0
195.064 195.064 0
195.064 207.2555 0
195.064 219.447 0
195.064 231.6385 0
207.2555 12.1915 0
207.2555 24.383 0
207.2555 36.5745 0
207.2555 48.766 0
207.2555 60.9575 0
207.2555 73.149 0
207.2555 85.3405 0
207.2555 97.532 0
207.2555 109.7235 0
207.2555 121.915 0
207.2555 134.1065 0
207.2555 146.298 0
207.2555 158.4895 0
207.2555 170.681 0
207.2555 182.8725 0
207.2555 195.064 0
207.2555 207.2555 0
207.2555 219.447 0
207.2555 231.6385 0
219.447 12.1915 0
219.447 24.383 0
219.447 36.5745 0
219.447 48.766 0
219.447 60.9575 0
219.447 73.149 0
219.447 85.3405 0
219.447 97.532 0
219.447 109.7235 0
219.447 121.915 0
219.447 134.1065 0
219.447 146.298 0
219.447 158.4895 0
219.447 170.681 0
219.447 182.8725 0
219.447 195.064 0
219.447 207.2555 0
219.447 219.447 0
219.447 231.6385 0
231.6385 12.1915 0
231.6385 24.383 0
231.6385 36.5745 0
231.6385 48.766 0
231.6385 60.9575 0
231.6385 73.149 0
231.6385 85.3405 0
231.6385 97.532 0
231.6385 109.7235 0
231.6385 121.915 0
231.6385 134.1065 0
231.6385 146.298 0
231.6385 158.4895 0
231.6385 170.681 0
231.6385 182.8725 0
231.6385 195.064 0
231.6385 207.2555 0
231.6385 219.447 0
231.6385 231.6385 0
12.1915 12.1915 -60.96
12.1915 24.383 -60.96
12.1915 36.5745 -60.96
12.1915 48.766 -60.96
12.1915 60.9575 -60.96
12.1915 73.149 -60.96
12.1915 85.3405 -60.96
12.1915 97.532 -60.96
12.1915 109.7235 -60.96
12.1915 121.915 -60.96
12.1915 134.1065 -60.96
12.1915 146.298 -60.96
12.1915 158.4895 -60.96
12.1915 170.681 -60.96
12.1915 182.8725 -60.96
12.1915 195.064 -60.96
12.1915 207.2555 -60.96
12.1915 219.447 -60.96
12.1915 231.6385 -60.96
24.383 12.1915 -60.96
24.383 24.383 -60.96
24.383 36.5745 -60.96
24.383 48.766 -60.96
24.383 60.9575 -60.96
24.383 73.149 -60.96
24.383 85.3405 -60.96
24.383 97.532 -60.96
[...]
POINT_DATA 882
SCALARS GLOBAL_ID int 1
LOOKUP_TABLE default
0 
1 
2 
3 
4 
5 
6 
7 
8 
9 
10 
11 
12 
13 
14 
15 
16 
17 
18 
19 
20 
21 
22 
23 
24 
25 
26 
27 
28 
29 
30 
31 
32 
33 
34 
35 
36 
37 
38 
39 
40 
41 
42 
43 
44 
45 
46 
47 
48 
49 
50 
51 
52 
53 
54 
55 
56 
57 
58 
59 
60 
61 
62 
63 
64 
65 
66 
67 
68 
69 
70 
71 
72 
73 
74 
75 
76 
77 
78 
79 
80 
81 
82 
83 
84 
85 
86 
87 
88 
89 
90 
91 
92 
93 
94 
95 
96 
97 
98 
99 
100 
101 
102 
103 
104 
105 
106 
107 
108 
109 
110 
111 
112 
113 
114 
115 
116 
117 
118 
119 
120 
121 
122 
123 
124 
125 
126 
127 
128 
129 
130 
131 
132 
133 
134 
135 
136 
137 
138 
139 
140 
141 
142 
143 
144 
145 
146 
147 
148 
149 
150 
151 
152 
153 
154 
155 
156 
157 
158 
159 
160 
161 
162 
163 
164 
165 
166 
167 
168 
169 
170 
171 
172 
173 
174 
175 
176 
177 
178 
179 
180 
181 
182 
183 
184 
185 
186 
187 
188 
189 
190 
191 
192 
193 
194 
195 
196 
197 
198 
199 
200 
201 
202 
203 
204 
205 
206 
207 
208 
209 
210 
211 
212 
213 
214 
215 
216 
217 
218 
219 
220 
221 
222 
223 
224 
225 
226 
227 
228 
229 
230 
231 
232 
233 
234 
235 
236 
237 
238 
239 
240 
241 
242 
243 
244 
245 
246 
247 
248 
249 
250 
251 
252 
253 
254 
255 
256 
257 
258 
259 
260 
261 
262 
263 
264 
265 
266 
267 
268 
269 
270 
271 
272 
273 
274 
275 
276 
277 
278 
279 
280 
281 
282 
283 
284 
285 
286 
287 
288 
289 
290 
291 
292 
293 
294 
295 
296 
297 
298 
299 
300 
301 
302 
303 
304 
305 
306 
307 
308 
309 
310 
311 
312 
313 
314 
315 
316 
317 
318 
319 
320 
321 
322 
323 
324 
325 
326 
327 
328 
329 
330 
331 
332 
333 
334 
335 
336 
337 
338 
339 
340 
341 
342 
343 
344 
345 
346 
347 
348 
349 
350 
351 
352 
353 
354 
355 
356 
357 
358 
359 
360 
361 
362 
363 
364 
365 
366 
367 
368 
369 
370 
371 
372 
373 
374 
375 
376 
377 
378 
379 
380 
381 
382 
383 
384 
385 
386 
387 
388 
389 
390 
391 
392 
393 
394 
395 
396 
397 
398 
399 
400 
401 
402 
403 
404 
405 
406 
407 
408 
409 
410 
411 
412 
413 
414 
415 
416 
417 
418 
419 
420 
421 
422 
423 
424 
425 
426 
427 
428 
429 
430 
431 
432 
433 
434 
435 
436 
437 
438 
439 
440 
441 
442 
443 
444 
445 
446 
447 
448 
449 
450 
451 
452 
453 
454 
455 
456 
457 
458 
459 
460 
461 
462 
463 
464 
465 
466 
467 
468 
469 
470 
471 
472 
473 
474 
475 
476 
477 
478 
479 
480 
481 
482 
483 
484 
485 
486 
487 
488 
489 
490 
491 
492 
493 
494 
495 
496 
497 
498 
499 
500 
501 
502 
503 
504 
505 
506 
507 
508 
509 
510 
511 
512 
513 
514 
515 
516 
517 
518 
519 
520 
521 
522 
523 
524 
525 
526 
527 
528 
529 
530 
531 
532 
533 
534 
535 
536 
537 
538 
539 
540 
541 
542 
543 
544 
545 
546 
547 
548 
549 
550 
551 
552 
553 
554 
555 
556 
557 
558 
559 
560 
561 
562 
563 
564 
565 
566 
567 
568 
569 
570 
571 
572 
573 
574 
575 
576 
577 
578 
579 
580 
581 
582 
583 
584 
585 
586 
587 
588 
589 
590 
591 
592 
593 
594 
595 
596 
597 
598 
599 
600 
601 
602 
603 
604 
605 
606 
607 
608 
609 
610 
611 
612 
613 
614 
615 
616 
617 
618 
619 
620 
621 
622 
623 
624 
625 
626 
627 
628 
629 
630 
631 
632 
633 
634 
635 
636 
637 
638 
639 
640 
641 
642 
643 
644 
645 
646 
647 
648 
649 
650 
651 
652 
653 
654 
655 
656 
657 
658 
659 
660 
661 
662 
663 
664 
665 
666 
667 
668 
669 
670 
671 
672 
673 
674 
675 
676 
677 
678 
679 
680 
681 
682 
683 
684 
685 
686 
687 
688 
689 
690 
691 
692 
693 
694 
695 
696 
697 
698 
699 
700 
701 
702 
703 
704 
705 
706 
707 
708 
709 
710 
711 
712 
713 
714 
715 
716 
717 
718 
719 
720 
721 
722 
723 
724 
725 
726 
727 
728 
729 
730 
731 
732 
733 
734 
735 
736 
737 
738 
739 
740 
741 
742 
743 
744 
745 
746 
747 
748 
749 
750 
751 
752 
753 
754 
755 
756 
757 
758 
759 
760 
761 
762 
763 
764 
765 
766 
767 
768 
769 
770 
771 
772 
773 
774 
775 
776 
777 
778 
779 
780 
781 
782 
783 
784 
785 
786 
787 
788 
789 
790 
791 
792 
793 
794 
795 
796 
797 
798 
799 
800 
801 
802 
803 
804 
805 
806 
807 
808 
809 
810 
811 
812 
813 
814 
815 
816 
817 
818 
819 
820 
821 
822 
823 
824 
825 
826 
827 
828 
829 
830 
831 
832 
833 
834 
835 
836 
837 
838 
839 
840 
841 
842 
843 
844 
845 
846 
847 
848 
849 
850 
851 
852 
853 
854 
855 
856 
857 
858 
859 
860 
861 
862 
863 
864 
865 
866 
867 
868 
869 
870 
871 
872 
873 
874 
875 
876 
877 
878 
879 
880 
881 
VECTORS NODES double
0 0 0 
0 0 -60.96 
243.83 0 -60.96 
243.83 0 0 
0 243.83 -60.96 
0 243.83 0 
243.83 243.83 0 
243.83 243.83 -60.96 
12.1915 0 -60.96 
24.383 0 -60.96 
36.5745 0 -60.96 
48.766 0 -60.96 
60.9575 0 -60.96 
73.149 0 -60.96 
85.3405 0 -60.96 
97.532 0 -60.96 
109.7235 0 -60.96 
121.915 0 -60.96 
134.1065 0 -60.96 
146.298 0 -60.96 
158.4895 0 -60.96 
170.681 0 -60.96 
182.8725 0 -60.96 
195.064 0 -60.96 
207.2555 0 -60.96 
219.447 0 -60.96 
231.6385 0 -60.96 
12.1915 0 0 
24.383 0 0 
36.5745 0 0 
48.766 0 0 
60.9575 0 0 
73.149 0 0 
85.3405 0 0 
97.532 0 0 
109.7235 0 0 
121.915 0 0 
134.1065 0 0 
146.298 0 0 
158.4895 0 0 
170.681 0 0 
182.8725 0 0 
195.064 0 0 
207.2555 0 0 
219.447 0 0 
231.6385 0 0 
12.1915 243.83 0 
24.383 243.83 0 
36.5745 243.83 0 
48.766 243.83 0 
60.9575 243.83 0 
73.149 243.83 0 
85.3405 243.83 0 
97.532 243.83 0 
109.7235 243.83 0 
121.915 243.83 0 
134.1065 243.83 0 
146.298 243.83 0 
158.4895 243.83 0 
170.681 243.83 0 
182.8725 243.83 0 
195.064 243.83 0 
207.2555 243.83 0 
219.447 243.83 0 
231.6385 243.83 0 
231.6385 243.83 -60.96 
219.447 243.83 -60.96 
207.2555 243.83 -60.96 
195.064 243.83 -60.96 
182.8725 243.83 -60.96 
170.681 243.83 -60.96 
158.4895 243.83 -60.96 
146.298 243.83 -60.96 
134.1065 243.83 -60.96 
121.915 243.83 -60.96 
109.7235 243.83 -60.96 
97.532 243.83 -60.96 
85.3405 243.83 -60.96 
73.149 243.83 -60.96 
60.9575 243.83 -60.96 
48.766 243.83 -60.96 
36.5745 243.83 -60.96 
24.383 243.83 -60.96 
12.1915 243.83 -60.96 
0 12.1915 -60.96 
0 24.383 -60.96 
0 36.5745 -60.96 
0 48.766 -60.96 
0 60.9575 -60.96 
0 73.149 -60.96 
0 85.3405 -60.96 
0 97.532 -60.96 
0 109.7235 -60.96 
0 121.915 -60.96 
0 134.1065 -60.96 
0 146.298 -60.96 
0 158.4895 -60.96 
0 170.681 -60.96 
0 182.8725 -60.96 
0 195.064 -60.96 
0 207.2555 -60.96 
0 219.447 -60.96 
0 231.6385 -60.96 
0 12.1915 0 
0 24.383 0 
0 36.5745 0 
0 48.766 0 
0 60.9575 0 
0 73.149 0 
0 85.3405 0 
0 97.532 0 
0 109.7235 0 
0 121.915 0 
0 134.1065 0 
0 146.298 0 
0 158.4895 0 
0 170.681 0 
0 182.8725 0 
0 195.064 0 
0 207.2555 0 
0 219.447 0 
0 231.6385 0 
243.83 12.1915 0 
243.83 24.383 0 
243.83 36.5745 0 
243.83 48.766 0 
243.83 60.9575 0 
243.83 73.149 0 
243.83 85.3405 0 
243.83 97.532 0 
243.83 109.7235 0 
243.83 121.915 0 
243.83 134.1065 0 
243.83 146.298 0 
243.83 158.4895 0 
243.83 170.681 0 
243.83 182.8725 0 
243.83 195.064 0 
243.83 207.2555 0 
243.83 219.447 0 
243.83 231.6385 0 
243.83 12.1915 -60.96 
243.83 24.383 -60.96 
243.83 36.5745 -60.96 
243.83 48.766 -60.96 
243.83 60.9575 -60.96 
243.83 73.149 -60.96 
243.83 85.3405 -60.96 
243.83 97.532 -60.96 
243.83 109.7235 -60.96 
243.83 121.915 -60.96 
243.83 134.1065 -60.96 
243.83 146.298 -60.96 
243.83 158.4895 -60.96 
243.83 170.681 -60.96 
243.83 182.8725 -60.96 
243.83 195.064 -60.96 
243.83 207.2555 -60.96 
243.83 219.447 -60.96 
243.83 231.6385 -60.96 
12.1915 12.1915 0 
12.1915 24.383 0 
12.1915 36.5745 0 
12.1915 48.766 0 
12.1915 60.9575 0 
12.1915 73.149 0 
12.1915 85.3405 0 
12.1915 97.532 0 
12.1915 109.7235 0 
12.1915 121.915 0 
12.1915 134.1065 0 
12.1915 146.298 0 
12.1915 158.4895 0 
12.1915 170.681 0 
12.1915 182.8725 0 
12.1915 195.064 0 
12.1915 207.2555 0 
12.1915 219.447 0 
12.1915 231.6385 0 
24.383 12.1915 0 
24.383 24.383 0 
24.383 36.5745 0 
24.383 48.766 0 
24.383 60.9575 0 
24.383 73.149 0 
24.383 85.3405 0 
24.383 97.532 0 
24.383 109.7235 0 
24.383 121.915 0 
24.383 134.1065 0 
24.383 146.298 0 
24.383 158.4895 0 
24.383 170.681 0 
24.383 182.8725 0 
24.383 195.064 0 
24.383 207.2555 0 
24.383 219.447 0 
24.383 231.6385 0 
36.5745 12.1915 0 
36.5745 24.383 0 
36.5745 36.5745 0 
36.5745 48.766 0 
36.5745 60.9575 0 
36.5745 73.149 0 
36.5745 85.3405 0 
36.5745 97.532 0 
36.5745 109.7235 0 
36.5745 121.915 0 
36.5745 134.1065 0 
36.5745 146.298 0 
36.5745 158.4895 0 
36.5745 170.681 0 
36.5745 182.8725 0 
36.5745 195.064 0 
36.5745 207.2555 0 
36.5745 219.447 0 
36.5745 231.6385 0 
48.766 12.1915 0 
48.766 24.383 0 
48.766 36.5745 0 
48.766 48.766 0 
48.766 60.9575 0 
48.766 73.149 0 
48.766 85.3405 0 
48.766 97.532 0 
48.766 109.7235 0 
48.766 121.915 0 
48.766 134.1065 0 
48.766 146.298 0 
48.766 158.4895 0 
48.766 170.681 0 
48.766 182.8725 0 
48.766 195.064 0 
48.766 207.2555 0 
48.766 219.447 0 
48.766 231.6385 0 
60.9575 12.1915 0 
60.9575 24.383 0 
60.9575 36.5745 0 
60.9575 48.766 0 
60.9575 60.9575 0 
60.9575 73.149 0 
60.9575 85.3405 0 
60.9575 97.532 0 
60.9575 109.7235 0 
60.9575 121.915 0 
60.9575 134.1065 0 
60.9575 146.298 0 
60.9575 158.4895 0 
60.9575 170.681 0 
60.9575 182.8725 0 
60.9575 195.064 0 
60.9575 207.2555 0 
60.9575 219.447 0 
60.9575 231.6385 0 
73.149 12.1915 0 
73.149 24.383 0 
73.149 36.5745 0 
73.149 48.766 0 
73.149 60.9575 0 
73.149 73.149 0 
73.149 85.3405 0 
73.149 97.532 0 
73.149 109.7235 0 
73.149 121.915 0 
73.149 134.1065 0 
73.149 146.298 0 
73.149 158.4895 0 
73.149 170.681 0 
73.149 182.8725 0 
73.149 195.064 0 
73.149 207.2555 0 
73.149 219.447 0 
73.149 231.6385 0 
85.3405 12.1915 0 
85.3405 24.383 0 
85.3405 36.5745 0 
85.3405 48.766 0 
85.3405 60.9575 0 
85.3405 73.149 0 
85.3405 85.3405 0 
85.3405 97.532 0 
85.3405 109.7235 0 
85.3405 121.915 0 
85.3405 134.1065 0 
85.3405 146.298 0 
85.3405 158.4895 0 
85.3405 170.681 0 
85.3405 182.8725 0 
85.3405 195.064 0 
85.3405 207.2555 0 
85.3405 219.447 0 
85.3405 231.6385 0 
97.532 12.1915 0 
97.532 24.383 0 
97.532 36.5745 0 
97.532 48.766 0 
97.532 60.9575 0 
97.532 73.149 0 
97.532 85.3405 0 
97.532 97.532 0 
97.532 109.7235 0 
97.532 121.915 0 
97.532 134.1065 0 
97.532 146.298 0 
97.532 158.4895 0 
97.532 170.681 0 
97.532 182.8725 0 
97.532 195.064 0 
97.532 207.2555 0 
97.532 219.447 0 
97.532 231.6385 0 
109.7235 12.1915 0 
109.7235 24.383 0 
109.7235 36.5745 0 
109.7235 48.766 0 
109.7235 60.9575 0 
109.7235 73.149 0 
109.7235 85.3405 0 
109.7235 97.532 0 
109.7235 109.7235 0 
109.7235 121.915 0 
109.7235 134.1065 0 
109.7235 146.298 0 
109.7235 158.4895 0 
109.7235 170.681 0 
109.7235 182.8725 0 
109.7235 195.064 0 
109.7235 207.2555 0 
109.7235 219.447 0 
109.7235 231.6385 0 
121.915 12.1915 0 
121.915 24.383 0 
121.915 36.5745 0 
121.915 48.766 0 
121.915 60.9575 0 
121.915 73.149 0 
121.915 85.3405 0 
121.915 97.532 0 
121.915 109.7235 0 
121.915 121.915 0 
121.915 134.1065 0 
121.915 146.298 0 
121.915 158.4895 0 
121.915 170.681 0 
121.915 182.8725 0 
121.915 195.064 0 
121.915 207.2555 0 
121.915 219.447 0 
121.915 231.6385 0 
134.1065 12.1915 0 
134.1065 24.383 0 
134.1065 36.5745 0 
134.1065 48.766 0 
134.1065 60.9575 0 
134.1065 73.149 0 
134.1065 85.3405 0 
134.1065 97.532 0 
134.1065 109.7235 0 
134.1065 121.915 0 
134.1065 134.1065 0 
134.1065 146.298 0 
134.1065 158.4895 0 
134.1065 170.681 0 
134.1065 182.8725 0 
134.1065 195.064 0 
134.1065 207.2555 0 
134.1065 219.447 0 
134.1065 231.6385 0 
146.298 12.1915 0 
146.298 24.383 0 
146.298 36.5745 0 
146.298 48.766 0 
146.298 60.9575 0 
146.298 73.149 0 
146.298 85.3405 0 
146.298 97.532 0 
146.298 109.7235 0 
146.298 121.915 0 
146.298 134.1065 0 
146.298 146.298 0 
146.298 158.4895 0 
146.298 170.681 0 
146.298 182.8725 0 
146.298 195.064 0 
146.298 207.2555 0 
146.298 219.447 0 
146.298 231.6385 0 
158.4895 12.1915 0 
158.4895 24.383 0 
158.4895 36.5745 0 
158.4895 48.766 0 
158.4895 60.9575 0 
158.4895 73.149 0 
158.4895 85.3405 0 
158.4895 97.532 0 
158.4895 109.7235 0 
158.4895 121.915 0 
158.4895 134.1065 0 
158.4895 146.298 0 
158.4895 158.4895 0 
158.4895 170.681 0 
158.4895 182.8725 0 
158.4895 195.064 0 
158.4895 207.2555 0 
158.4895 219.447 0 
158.4895 231.6385 0 
170.681 12.1915 0 
170.681 24.383 0 
170.681 36.5745 0 
170.681 48.766 0 
170.681 60.9575 0 
170.681 73.149 0 
170.681 85.3405 0 
170.681 97.532 0 
170.681 109.7235 0 
170.681 121.915 0 
170.681 134.1065 0 
170.681 146.298 0 
170.681 158.4895 0 
170.681 170.681 0 
170.681 182.8725 0 
170.681 195.064 0 
170.681 207.2555 0 
170.681 219.447 0 
170.681 231.6385 0 
182.8725 12.1915 0 
182.8725 24.383 0 
182.8725 36.5745 0 
182.8725 48.766 0 
182.8725 60.9575 0 
182.8725 73.149 0 
182.8725 85.3405 0 
182.8725 97.532 0 
182.8725 109.7235 0 
182.8725 121.915 0 
182.8725 134.1065 0 
182.8725 146.298 0 
182.8725 158.4895 0 
182.8725 170.681 0 
182.8725 182.8725 0 
182.8725 195.064 0 
182.8725 207.2555 0 
182.8725 219.447 0 
182.8725 231.6385 0 
195.064 12.1915 0 
195.064 24.383 0 
195.064 36.5745 0 
195.064 48.766 0 
195.064 60.9575 0 
195.064 73.149 0 
195.064 85.3405 0 
195.064 97.532 0 
195.064 109.7235 0 
195.064 121.915 0 
195.064 134.1065 0 
195.064 146.298 0 
195.064 158.4895 0 
195.064 170.681 0 
195.064 182.8725 0 
195.064 195.064 0 
195.064 207.2555 0 
195.064 219.447 0 
195.064 231.6385 0 
207.2555 12.1915 0 
207.2555 24.383 0 
207.2555 36.5745 0 
207.2555 48.766 0 
207.2555 60.9575 0 
207.2555 73.149 0 
207.2555 85.3405 0 
207.2555 97.532 0 
207.2555 109.7235 0 
207.2555 121.915 0 
207.2555 134.1065 0 
207.2555 146.298 0 
207.2555 158.4895 0 
207.2555 170.681 0 
207.2555 182.8725 0 
207.2555 195.064 0 
207.2555 207.2555 0 
207.2555 219.447 0 
207.2555 231.6385 0 
219.447 12.1915 0 
219.447 24.383 0 
219.447 36.5745 0 
219.447 48.766 0 
219.447 60.9575 0 
219.447 73.149 0 
219.447 85.3405 0 
219.447 97.532 0 
219.447 109.7235 0 
219.447 121.915 0 
219.447 134.1065 0 
219.447 146.298 0 
219.447 158.4895 0 
219.447 170.681 0 
219.447 182.8725 0 
219.447 195.064 0 
219.447 207.2555 0 
219.447 219.447 0 
219.447 231.6385 0 
231.6385 12.1915 0 
231.6385 24.383 0 
231.6385 36.5745 0 
231.6385 48.766 0 
231.6385 60.9575 0 
231.6385 73.149 0 
231.6385 85.3405 0 
231.6385 97.532 0 
231.6385 109.7235 0 
231.6385 121.915 0 
231.6385 134.1065 0 
231.6385 146.298 0 
231.6385 158.4895 0 
231.6385 170.681 0 
231.6385 182.8725 0 
231.6385 195.064 0 
231.6385 207.2555 0 
231.6385 219.447 0 
231.6385 231.6385 0 
12.1915 12.1915 -60.96 
12.1915 24.383 -60.96 
12.1915 36.5745 -60.96 
12.1915 48.766 -60.96 
12.1915 60.9575 -60.96 
12.1915 73.149 -60.96 
12.1915 85.3405 -60.96 
12.1915 97.532 -60.96 
12.1915 109.7235 -60.96 
12.1915 121.915 -60.96 
12.1915 134.1065 -60.96 
12.1915 146.298 -60.96 
12.1915 158.4895 -60.96 
12.1915 170.681 -60.96 
12.1915 182.8725 -60.96 
12.1915 195.064 -60.96 
12.1915 207.2555 -60.96 
12.1915 219.447 -60.96 
12.1915 231.6385 -60.96 
24.383 12.1915 -60.96 
24.383 24.383 -60.96 
24.383 36.5745 -60.96 
24.383 48.766 -60.96 
24.383 60.9575 -60.96 
24.383 73.149 -60.96 
24.383 85.3405 -60.96 
24.383 97.532 -60.96 
24.383 109.7235 -60.96 
24.383 121.915 -60.96 
24.383 134.1065 -60.96 
24.383 146.298 -60.96 
24.383 158.4895 -60.96 
24.383 170.681 -60.96 
24.383 182.8725 -60.96 
24.383 195.064 -60.96 
24.383 207.2555 -60.96 
24.383 219.447 -60.96 
24.383 231.6385 -60.96 
36.5745 12.1915 -60.96 
36.5745 24.383 -60.96 
36.5745 36.5745 -60.96 
36.5745 48.766 -60.96 
36.5745 60.9575 -60.96 
36.5745 73.149 -60.96 
36.5745 85.3405 -60.96 
36.5745 97.532 -60.96 
36.5745 109.7235 -60.96 
36.5745 121.915 -60.96 
36.5745 134.1065 -60.96 
36.5745 146.298 -60.96 
36.5745 158.4895 -60.96 
36.5745 170.681 -60.96 
36.5745 182.8725 -60.96 
36.5745 195.064 -60.96 
36.5745 207.2555 -60.96 
36.5745 219.447 -60.96 
36.5745 231.6385 -60.96 
48.766 12.1915 -60.96 
48.766 24.383 -60.96 
48.766 36.5745 -60.96 
48.766 48.766 -60.96 
48.766 60.9575 -60.96 
48.766 73.149 -60.96 
48.766 85.3405 -60.96 
48.766 97.532 -60.96 
48.766 109.7235 -60.96 
48.766 121.915 -60.96 
48.766 134.1065 -60.96 
48.766 146.298 -60.96 
48.766 158.4895 -60.96 
48.766 170.681 -60.96 
48.766 182.8725 -60.96 
48.766 195.064 -60.96 
48.766 207.2555 -60.96 
48.766 219.447 -60.96 
48.766 231.6385 -60.96 
60.9575 12.1915 -60.96 
60.9575 24.383 -60.96 
60.9575 36.5745 -60.96 
60.9575 48.766 -60.96 
60.9575 60.9575 -60.96 
60.9575 73.149 -60.96 
60.9575 85.3405 -60.96 
60.9575 97.532 -60.96 
60.9575 109.7235 -60.96 
60.9575 121.915 -60.96 
60.9575 134.1065 -60.96 
60.9575 146.298 -60.96 
60.9575 158.4895 -60.96 
60.9575 170.681 -60.96 
60.9575 182.8725 -60.96 
60.9575 195.064 -60.96 
60.9575 207.2555 -60.96 
60.9575 219.447 -60.96 
60.9575 231.6385 -60.96 
73.149 12.1915 -60.96 
73.149 24.383 -60.96 
73.149 36.5745 -60.96 
73.149 48.766 -60.96 
73.149 60.9575 -60.96 
73.149 73.149 -60.96 
73.149 85.3405 -60.96 
73.149 97.532 -60.96 
73.149 109.7235 -60.96 
73.149 121.915 -60.96 
73.149 134.1065 -60.96 
73.149 146.298 -60.96 
73.149 158.4895 -60.96 
73.149 170.681 -60.96 
73.149 182.8725 -60.96 
73.149 195.064 -60.96 
73.149 207.2555 -60.96 
73.149 219.447 -60.96 
73.149 231.6385 -60.96 
85.3405 12.1915 -60.96 
85.3405 24.383 -60.96 
85.3405 36.5745 -60.96 
85.3405 48.766 -60.96 
85.3405 60.9575 -60.96 
85.3405 73.149 -60.96 
85.3405 85.3405 -60.96 
85.3405 97.532 -60.96 
85.3405 109.7235 -60.96 
85.3405 121.915 -60.96 
85.3405 134.1065 -60.96 
85.3405 146.298 -60.96 
85.3405 158.4895 -60.96 
85.3405 170.681 -60.96 
85.3405 182.8725 -60.96 
85.3405 195.064 -60.96 
85.3405 207.2555 -60.96 
85.3405 219.447 -60.96 
85.3405 231.6385 -60.96 
97.532 12.1915 -60.96 
97.532 24.383 -60.96 
97.532 36.5745 -60.96 
97.532 48.766 -60.96 
97.532 60.9575 -60.96 
97.532 73.149 -60.96 
97.532 85.3405 -60.96 
97.532 97.532 -60.96 
97.532 109.7235 -60.96 
97.532 121.915 -60.96 
97.532 134.1065 -60.96 
97.532 146.298 -60.96 
97.532 158.4895 -60.96 
97.532 170.681 -60.96 
97.532 182.8725 -60.96 
97.532 195.064 -60.96 
97.532 207.2555 -60.96 
97.532 219.447 -60.96 
97.532 231.6385 -60.96 
109.7235 12.1915 -60.96 
109.7235 24.383 -60.96 
109.7235 36.5745 -60.96 
109.7235 48.766 -60.96 
109.7235 60.9575 -60.96 
109.7235 73.149 -60.96 
109.7235 85.3405 -60.96 
109.7235 97.532 -60.96 
109.7235 109.7235 -60.96 
109.7235 121.915 -60.96 
109.7235 134.1065 -60.96 
109.7235 146.298 -60.96 
109.7235 158.4895 -60.96 
109.7235 170.681 -60.96 
109.7235 182.8725 -60.96 
109.7235 195.064 -60.96 
109.7235 207.2555 -60.96 
109.7235 219.447 -60.96 
109.7235 231.6385 -60.96 
121.915 12.1915 -60.96 
121.915 24.383 -60.96 
121.915 36.5745 -60.96 
121.915 48.766 -60.96 
121.915 60.9575 -60.96 
121.915 73.149 -60.96 
121.915 85.3405 -60.96 
121.915 97.532 -60.96 
121.915 109.7235 -60.96 
121.915 121.915 -60.96 
121.915 134.1065 -60.96 
121.915 146.298 -60.96 
121.915 158.4895 -60.96 
121.915 170.681 -60.96 
121.915 182.8725 -60.96 
121.915 195.064 -60.96 
121.915 207.2555 -60.96 
121.915 219.447 -60.96 
121.915 231.6385 -60.96 
134.1065 12.1915 -60.96 
134.1065 24.383 -60.96 
134.1065 36.5745 -60.96 
134.1065 48.766 -60.96 
134.1065 60.9575 -60.96 
134.1065 73.149 -60.96 
134.1065 85.3405 -60.96 
134.1065 97.532 -60.96 
134.1065 109.7235 -60.96 
134.1065 121.915 -60.96 
134.1065 134.1065 -60.96 
134.1065 146.298 -60.96 
134.1065 158.4895 -60.96 
134.1065 170.681 -60.96 
134.1065 182.8725 -60.96 
134.1065 195.064 -60.96 
134.1065 207.2555 -60.96 
134.1065 219.447 -60.96 
134.1065 231.6385 -60.96 
146.298 12.1915 -60.96 
146.298 24.383 -60.96 
146.298 36.5745 -60.96 
146.298 48.766 -60.96 
146.298 60.9575 -60.96 
146.298 73.149 -60.96 
146.298 85.3405 -60.96 
146.298 97.532 -60.96 
146.298 109.7235 -60.96 
146.298 121.915 -60.96 
146.298 134.1065 -60.96 
146.298 146.298 -60.96 
146.298 158.4895 -60.96 
146.298 170.681 -60.96 
146.298 182.8725 -60.96 
146.298 195.064 -60.96 
146.298 207.2555 -60.96 
146.298 219.447 -60.96 
146.298 231.6385 -60.96 
158.4895 12.1915 -60.96 
158.4895 24.383 -60.96 
158.4895 36.5745 -60.96 
158.4895 48.766 -60.96 
158.4895 60.9575 -60.96 
158.4895 73.149 -60.96 
158.4895 85.3405 -60.96 
158.4895 97.532 -60.96 
158.4895 109.7235 -60.96 
158.4895 121.915 -60.96 
158.4895 134.1065 -60.96 
158.4895 146.298 -60.96 
158.4895 158.4895 -60.96 
158.4895 170.681 -60.96 