# vtk DataFile Version 3.0
MOAB 5.1.1
ASCII
DATASET UNSTRUCTURED_GRID
POINTS 68 double
0 0 0
0 0 1
0 1 1
0 1 0
1.5 0 0
1.5 0 1
1.5 1 1
1.5 1 0
0.09375 0 0
0.1875 0 0
0.28125 0 0
0.375 0 0
0.46875 0 0
0.5625 0 0
0.65625 0 0
0.75 0 0
0.84375 0 0
0.9375 0 0
1.03125 0 0
1.125 0 0
1.21875 0 0
1.3125 0 0
1.40625 0 0
0.09375 0 1
0.1875 0 1
0.28125 0 1
0.375 0 1
0.46875 0 1
0.5625 0 1
0.65625 0 1
0.75 0 1
0.84375 0 1
0.9375 0 1
1.03125 0 1
1.125 0 1
1.21875 0 1
1.3125 0 1
1.40625 0 1
0.09375 1 1
0.1875 1 1
0.28125 1 1
0.375 1 1
0.46875 1 1
0.5625 1 1
0.65625 1 1
0.75 1 1
0.84375 1 1
0.9375 1 1
1.03125 1 1
1.125 1 1
1.21875 1 1
1.3125 1 1
1.40625 1 1
0.09375 1 0
0.1875 1 0
0.28125 1 0
0.375 1 0
0.46875 1 0
0.5625 1 0
0.65625 1 0
0.75 1 0
0.84375 1 0
0.9375 1 0
1.03125 1 0
1.125 1 0
1.21875 1 0
1.3125 1 0
1.40625 1 0
CELLS 16 144
8 2 1 0 3 38 23 8 53
8 38 23 8 53 39 24 9 54
8 39 24 9 54 40 25 10 55
8 40 25 10 55 41 26 11 56
8 41 26 11 56 42 27 12 57
8 42 27 12 57 43 28 13 58
8 43 28 13 58 44 29 14 59
8 44 29 14 59 45 30 15 60
8 45 30 15 60 46 31 16 61
8 46 31 16 61 47 32 17 62
8 47 32 17 62 48 33 18 63
8 48 33 18 63 49 34 19 64
8 49 34 19 64 50 35 20 65
8 50 35 20 65 51 36 21 66
8 51 36 21 66 52 37 22 67
8 52 37 22 67 6 5 4 7
CELL_TYPES 16
12
12
12
12
12
12
12
12
12
12
12
12
12
12
12
12
POINT_DATA 68
SCALARS GLOBAL_ID int 1
LOOKUP_TABLE default
0 
1 
2 
3 
4 
5 
6 
7 
8 
9 
10 
11 
12 
13 
14 
15 
16 
17 
18 
19 
20 
21 
22 
23 
24 
25 
26 
27 
28 
29 
30 
31 
32 
33 
34 
35 
36 
37 
38 
39 
40 
41 
42 
43 
44 
45 
46 
47 
48 
49 
50 
51 
52 
53 
54 
55 
56 
57 
58 
59 
60 
61 
62 
63 
64 
65 
66 
67 
VECTORS NODES double
0 0 0 
0 0 1 
0 1 1 
0 1 0 
1.5 0 0 
1.5 0 1 
1.5 1 1 
1.5 1 0 
0.09375 0 0 
0.1875 0 0 
0.28125 0 0 
0.375 0 0 
0.46875 0 0 
0.5625 0 0 
0.65625 0 0 
0.75 0 0 
0.84375 0 0 
0.9375 0 0 
1.03125 0 0 
1.125 0 0 
1.21875 0 0 
1.3125 0 0 
1.40625 0 0 
0.09375 0 1 
0.1875 0 1 
0.28125 0 1 
0.375 0 1 
0.46875 0 1 
0.5625 0 1 
0.65625 0 1 
0.75 0 1 
0.84375 0 1 
0.9375 0 1 
1.03125 0 1 
1.125 0 1 
1.21875 0 1 
1.3125 0 1 
1.40625 0 1 
0.09375 1 1 
0.1875 1 1 
0.28125 1 1 
0.375 1 1 
0.46875 1 1 
0.5625 1 1 
0.65625 1 1 
0.75 1 1 
0.84375 1 1 
0.9375 1 1 
1.03125 1 1 
1.125 1 1 
1.21875 1 1 
1.3125 1 1 
1.40625 1 1 
0.09375 1 0 
0.1875 1 0 
0.28125 1 0 
0.375 1 0 
0.46875 1 0 
0.5625 1 0 
0.65625 1 0 
0.75 1 0 
0.84375 1 0 
0.9375 1 0 
1.03125 1 0 
1.125 1 0 
1.21875 1 0 
1.3125 1 0 
1.40625 1 0 
VECTORS centroid_nodes double
0 0 0 
0 0 1 
0 1 1 
0 1 0 
1.5 0 0 
1.5 0 1 
1.5 1 1 
1.5 1 0 
0.09375 0 0 
0.1875 0 0 
0.28125 0 0 
0.375 0 0 
0.46875 0 0 
0.5625 0 0 
0.65625 0 0 
0.75 0 0 
0.84375 0 0 
0.9375 0 0 
1.03125 0 0 
1.125 0 0 
1.21875 0 0 
1.3125 0 0 
1.40625 0 0 
0.09375 0 1 
0.1875 0 1 
0.28125 0 1 
0.375 0 1 
0.46875 0 1 
0.5625 0 1 
0.65625 0 1 
0.75 0 1 
0.84375 0 1 
0.9375 0 1 
1.03125 0 1 
1.125 0 1 
1.21875 0 1 
1.3125 0 1 
1.40625 0 1 
0.09375 1 1 
0.1875 1 1 
0.28125 1 1 
0.375 1 1 
0.46875 1 1 
0.5625 1 1 
0.65625 1 1 
0.75 1 1 
0.84375 1 1 
0.9375 1 1 
1.03125 1 1 
1.125 1 1 
1.21875 1 1 
1.3125 1 1 
1.40625 1 1 
0.09375 1 0 
0.1875 1 0 
0.28125 1 0 
0.375 1 0 
0.46875 1 0 
0.5625 1 0 
0.65625 1 0 
0.75 1 0 
0.84375 1 0 
0.9375 1 0 
1.03125 1 0 
1.125 1 0 
1.21875 1 0 
1.3125 1 0 
1.40625 1 0 
CELL_DATA 16
SCALARS GLOBAL_ID int 1
LOOKUP_TABLE default
0 
1 
2 
3 
4 
5 
6 
7 
8 
9 
10 
11 
12 
13 
14 
15 
SCALARS Sg double 1
LOOKUP_TABLE default
1 
1 
0.9509396527 
0.9253366546 
0.9139774817 
0.903526503 
0.8851729386 
0.8521772472 
0.805805335 
0.7532563502 
0.6964948342 
0.6136957196 
0.29132323 
0 
0 
0 
SCALARS So double 1
LOOKUP_TABLE default
0 
0 
0.04906034733 
0.07466334543 
0.0860225183 
0.096473497 
0.1148270614 
0.1478227528 
0.194194665 
0.2467436498 
0.3035051658 
0.3863042804 
0.70867677 
1 
1 
1 
VECTORS centroid_volumes double
0.046875 0.5 0.5 
0.140625 0.5 0.5 
0.234375 0.5 0.5 
0.328125 0.5 0.5 
0.421875 0.5 0.5 
0.515625 0.5 0.5 
0.609375 0.5 0.5 
0.703125 0.5 0.5 
0.796875 0.5 0.5 
0.890625 0.5 0.5 
0.984375 0.5 0.5 
1.078125 0.5 0.5 
1.171875 0.5 0.5 
1.265625 0.5 0.5 
1.359375 0.5 0.5 
1.453125 0.5 0.5 
SCALARS flux_grav_volumes double 1
LOOKUP_TABLE default
0 
0 
0 
0 
0 
0 
0 
0 
0 
0 
0 
0 
0 
0 
0 
0 
SCALARS flux_o_volumes double 1
LOOKUP_TABLE default
0 
0 
0 
0 
0 
0 
0 
0 
0 
0 
0 
0 
0 
0 
0 
0 
SCALARS flux_volumes double 1
LOOKUP_TABLE default
0 
0 
0 
0 
0 
0 
0 
0 
0 
0 
0 
0 
0 
0 
0 
0 
SCALARS flux_volumes_test double 1
LOOKUP_TABLE default
0 
0 
0 
0 
0 
0 
0 
0 
0 
0 
0 
0 
0 
0 
0 
0 
SCALARS flux_w_volumes double 1
LOOKUP_TABLE default
0 
0 
0 
0 
0 
0 
0 
0 
0 
0 
0 
0 
0 
0 
0 
0 
SCALARS fw_vol double 1
LOOKUP_TABLE default
0 
0 
0 
0 
0 
0 
0 
0 
0 
0 
0 
0 
0 
0 
0 
0 
SCALARS gama double 1
LOOKUP_TABLE default
10000 
10000 
10000 
10000 
10000 
10000 
10000 
10000 
10000 
10000 
10000 
10000 
10000 
10000 
10000 
10000 
VECTORS hs double
0.09375 1 1 
0.09375 1 1 
0.09375 1 1 
0.09375 1 1 
0.09375 1 1 
0.09375 1 1 
0.09375 1 1 
0.09375 1 1 
0.09375 1 1 
0.09375 1 1 
0.09375 1 1 
0.09375 1 1 
0.09375 1 1 
0.09375 1 1 
0.09375 1 1 
0.09375 1 1 
SCALARS kro double 1
LOOKUP_TABLE default
0 
0 
0 
0 
0 
0 
0 
0 
0 
0 
0 
0 
0 
0 
0 
0 
SCALARS krw double 1
LOOKUP_TABLE default
0 
0 
0 
0 
0 
0 
0 
0 
0 
0 
0 
0 
0 
0 
0 
0 
SCALARS lambda_o double 1
LOOKUP_TABLE default
0 
0 
0 
0 
0 
0 
0 
0 
0 
0 
0 
0 
0 
0 
0 
0 
SCALARS lambda_t double 1
LOOKUP_TABLE default
0 
0 
0 
0 
0 
0 
0 
0 
0 
0 
0 
0 
0 
0 
0 
0 
SCALARS lambda_w double 1
LOOKUP_TABLE default
0 
0 
0 
0 
0 
0 
0 
0 
0 
0 
0 
0 
0 
0 
0 
0 
SCALARS mass_oil_production double 1
LOOKUP_TABLE default
0 
0 
0 
0 
0 
0 
0 
0 
0 
0 
0 
0 
0 
0 
0 
0 
SCALARS mass_water_production double 1
LOOKUP_TABLE default
0 
0 
0 
0 
0 
0 
0 
0 
0 
0 
0 
0 
0 
0 
0 
0 
TENSORS permeability double
9.869233e-15 0 0 0 9.869233e-15 0 0 0 9.869233e-15 
9.869233e-15 0 0 0 9.869233e-15 0 0 0 9.869233e-15 
9.869233e-15 0 0 0 9.869233e-15 0 0 0 9.869233e-15 
9.869233e-15 0 0 0 9.869233e-15 0 0 0 9.869233e-15 
9.869233e-15 0 0 0 9.869233e-15 0 0 0 9.869233e-15 
9.869233e-15 0 0 0 9.869233e-15 0 0 0 9.869233e-15 
9.869233e-15 0 0 0 9.869233e-15 0 0 0 9.869233e-15 
9.869233e-15 0 0 0 9.869233e-15 0 0 0 9.869233e-15 
9.869233e-15 0 0 0 9.869233e-15 0 0 0 9.869233e-15 
9.869233e-15 0 0 0 9.869233e-15 0 0 0 9.869233e-15 
9.869233e-15 0 0 0 9.869233e-15 0 0 0 9.869233e-15 
9.869233e-15 0 0 0 9.869233e-15 0 0 0 9.869233e-15 
9.869233e-15 0 0 0 9.869233e-15 0 0 0 9.869233e-15 
9.869233e-15 0 0 0 9.869233e-15 0 0 0 9.869233e-15 
9.869233e-15 0 0 0 9.869233e-15 0 0 0 9.869233e-15 
9.869233e-15 0 0 0 9.869233e-15 0 0 0 9.869233e-15 
SCALARS poro double 1
LOOKUP_TABLE default
1 
1 
1 
1 
1 
1 
1 
1 
1 
1 
1 
1 
1 
1 
1 
1 
SCALARS pressure double 1
LOOKUP_TABLE default
0 
0 
0 
0 
0 
0 
0 
0 
0 
0 
0 
0 
0 
0 
0 
0 
SCALARS saturation double 1
LOOKUP_TABLE default
0 
0 
0 
0 
0 
0 
0 
0 
0 
0 
0 
0 
0 
0 
0 
0 
SCALARS saturation_last double 1
LOOKUP_TABLE default
0 
0 
0 
0 
0 
0 
0 
0 
0 
0 
0 
0 
0 
0 
0 
0 
SCALARS test_fw double 1
LOOKUP_TABLE default
0 
0 
0 
0 
0 
0 
0 
0 
0 
0 
0 
0 
0 
0 
0 
0 
SCALARS verif_po double 1
LOOKUP_TABLE default
0 
0 
0 
0 
0 
0 
0 
0 
0 
0 
0 
0 
0 
0 
0 
0 
SCALARS verif_rest double 1
LOOKUP_TABLE default
0 
0 
0 
0 
0 
0 
0 
0 
0 
0 
0 
0 
0 
0 
0 
0 
SCALARS volume double 1
LOOKUP_TABLE default
0.09375 
0.09375 
0.09375 
0.09375 
0.09375 
0.09375 
0.09375 
0.09375 
0.09375 
0.09375 
0.09375 
0.09375 
0.09375 
0.09375 
0.09375 
0.09375 
VECTORS weight double
0 0 0 
0 0 0 
0 0 0 
0 0 0 
0 0 0 
0 0 0 
0 0 0 
0 0 0 
0 0 0 
0 0 0 
0 0 0 
0 0 0 
0 0 0 
0 0 0 
0 0 0 
0 0 0 
SCALARS zC1 double 1
LOOKUP_TABLE default
1 
0.9994412277 
0.9802225376 
0.9709145829 
0.9640492715 
0.9524494225 
0.9308765326 
0.897841742 
0.8549377351 
0.7995597299 
0.7229521272 
0.6138116347 
0.4338774936 
0.2532207891 
0.1482630005 
0.1442488399 
SCALARS P double 1
LOOKUP_TABLE default
700000000 
0 
0 
0 
0 
0 
0 
0 
0 
0 
0 
0 
0 
0 
0 
700000000 
SCALARS INJ int 1
LOOKUP_TABLE default
1 
0 
0 
0 
0 
0 
0 
0 
0 
0 
0 
0 
0 
0 
0 
0 
SCALARS PROD int 1
LOOKUP_TABLE default
0 
0 
0 
0 
0 
0 
0 
0 
0 
0 
0 
0 
0 
0 
0 
1 
