# vtk DataFile Version 3.0
MOAB 5.1.1
ASCII
DATASET UNSTRUCTURED_GRID
POINTS 804 double
0 0 0
0 0 1
0 1 1
0 1 0
1.5 0 0
1.5 0 1
1.5 1 1
1.5 1 0
0.0075 0 0
0.015 0 0
0.0225 0 0
0.03 0 0
0.0375 0 0
0.045 0 0
0.0525 0 0
0.06 0 0
0.0675 0 0
0.075 0 0
0.0825 0 0
0.09 0 0
0.0975 0 0
0.105 0 0
0.1125 0 0
0.12 0 0
0.1275 0 0
0.135 0 0
0.1425 0 0
0.15 0 0
0.1575 0 0
0.165 0 0
0.1725 0 0
0.18 0 0
0.1875 0 0
0.195 0 0
0.2025 0 0
0.21 0 0
0.2175 0 0
0.225 0 0
0.2325 0 0
0.24 0 0
0.2475 0 0
0.255 0 0
0.2625 0 0
0.27 0 0
0.2775 0 0
0.285 0 0
0.2925 0 0
0.3 0 0
0.3075 0 0
0.315 0 0
0.3225 0 0
0.33 0 0
0.3375 0 0
0.345 0 0
0.3525 0 0
0.36 0 0
0.3675 0 0
0.375 0 0
0.3825 0 0
0.39 0 0
0.3975 0 0
0.405 0 0
0.4125 0 0
0.42 0 0
0.4275 0 0
0.435 0 0
0.4425 0 0
0.45 0 0
0.4575 0 0
0.465 0 0
0.4725 0 0
0.48 0 0
0.4875 0 0
0.495 0 0
0.5025 0 0
0.51 0 0
0.5175 0 0
0.525 0 0
0.5325 0 0
0.54 0 0
0.5475 0 0
0.555 0 0
0.5625 0 0
0.57 0 0
0.5775 0 0
0.585 0 0
0.5925 0 0
0.6 0 0
0.6075 0 0
0.615 0 0
0.6225 0 0
0.63 0 0
0.6375 0 0
0.645 0 0
0.6525 0 0
0.66 0 0
0.6675 0 0
0.675 0 0
0.6825 0 0
0.69 0 0
0.6975 0 0
0.705 0 0
0.7125 0 0
0.72 0 0
0.7275 0 0
0.735 0 0
0.7425 0 0
0.75 0 0
0.7575 0 0
0.765 0 0
0.7725 0 0
0.78 0 0
0.7875 0 0
0.795 0 0
0.8025 0 0
0.81 0 0
0.8175 0 0
0.825 0 0
0.8325 0 0
0.84 0 0
0.8475 0 0
0.855 0 0
0.8625 0 0
0.87 0 0
0.8775 0 0
0.885 0 0
0.8925 0 0
0.9 0 0
0.9075 0 0
0.915 0 0
0.9225 0 0
0.93 0 0
0.9375 0 0
0.945 0 0
0.9525 0 0
0.96 0 0
0.9675 0 0
0.975 0 0
0.9825 0 0
0.99 0 0
0.9975 0 0
1.005 0 0
1.0125 0 0
1.02 0 0
1.0275 0 0
1.035 0 0
1.0425 0 0
1.05 0 0
1.0575 0 0
1.065 0 0
1.0725 0 0
1.08 0 0
1.0875 0 0
1.095 0 0
1.1025 0 0
1.11 0 0
1.1175 0 0
1.125 0 0
1.1325 0 0
1.14 0 0
1.1475 0 0
1.155 0 0
1.1625 0 0
1.17 0 0
1.1775 0 0
1.185 0 0
1.1925 0 0
1.2 0 0
1.2075 0 0
1.215 0 0
1.2225 0 0
1.23 0 0
1.2375 0 0
1.245 0 0
1.2525 0 0
1.26 0 0
1.2675 0 0
1.275 0 0
1.2825 0 0
1.29 0 0
1.2975 0 0
1.305 0 0
1.3125 0 0
1.32 0 0
1.3275 0 0
1.335 0 0
1.3425 0 0
1.35 0 0
1.3575 0 0
1.365 0 0
1.3725 0 0
1.38 0 0
1.3875 0 0
1.395 0 0
1.4025 0 0
1.41 0 0
1.4175 0 0
1.425 0 0
1.4325 0 0
1.44 0 0
1.4475 0 0
1.455 0 0
1.4625 0 0
1.47 0 0
1.4775 0 0
1.485 0 0
1.4925 0 0
0.0075 0 1
0.015 0 1
0.0225 0 1
0.03 0 1
0.0375 0 1
0.045 0 1
0.0525 0 1
0.06 0 1
0.0675 0 1
0.075 0 1
0.0825 0 1
0.09 0 1
0.0975 0 1
0.105 0 1
0.1125 0 1
0.12 0 1
0.1275 0 1
0.135 0 1
0.1425 0 1
0.15 0 1
0.1575 0 1
0.165 0 1
0.1725 0 1
0.18 0 1
0.1875 0 1
0.195 0 1
0.2025 0 1
0.21 0 1
0.2175 0 1
0.225 0 1
0.2325 0 1
0.24 0 1
0.2475 0 1
0.255 0 1
0.2625 0 1
0.27 0 1
0.2775 0 1
0.285 0 1
0.2925 0 1
0.3 0 1
0.3075 0 1
0.315 0 1
0.3225 0 1
0.33 0 1
0.3375 0 1
0.345 0 1
0.3525 0 1
0.36 0 1
0.3675 0 1
0.375 0 1
0.3825 0 1
0.39 0 1
0.3975 0 1
0.405 0 1
0.4125 0 1
0.42 0 1
0.4275 0 1
0.435 0 1
0.4425 0 1
0.45 0 1
0.4575 0 1
0.465 0 1
0.4725 0 1
0.48 0 1
0.4875 0 1
0.495 0 1
0.5025 0 1
0.51 0 1
0.5175 0 1
0.525 0 1
0.5325 0 1
0.54 0 1
0.5475 0 1
0.555 0 1
0.5625 0 1
0.57 0 1
0.5775 0 1
0.585 0 1
0.5925 0 1
0.6 0 1
0.6075 0 1
0.615 0 1
0.6225 0 1
0.63 0 1
0.6375 0 1
0.645 0 1
0.6525 0 1
0.66 0 1
0.6675 0 1
0.675 0 1
0.6825 0 1
0.69 0 1
0.6975 0 1
0.705 0 1
0.7125 0 1
0.72 0 1
0.7275 0 1
0.735 0 1
0.7425 0 1
0.75 0 1
0.7575 0 1
0.765 0 1
0.7725 0 1
0.78 0 1
0.7875 0 1
0.795 0 1
0.8025 0 1
0.81 0 1
0.8175 0 1
0.825 0 1
0.8325 0 1
0.84 0 1
0.8475 0 1
0.855 0 1
0.8625 0 1
0.87 0 1
0.8775 0 1
0.885 0 1
0.8925 0 1
0.9 0 1
0.9075 0 1
0.915 0 1
0.9225 0 1
0.93 0 1
0.9375 0 1
0.945 0 1
0.9525 0 1
0.96 0 1
0.9675 0 1
0.975 0 1
0.9825 0 1
0.99 0 1
0.9975 0 1
1.005 0 1
1.0125 0 1
1.02 0 1
1.0275 0 1
1.035 0 1
1.0425 0 1
1.05 0 1
1.0575 0 1
1.065 0 1
1.0725 0 1
1.08 0 1
1.0875 0 1
1.095 0 1
1.1025 0 1
1.11 0 1
1.1175 0 1
1.125 0 1
1.1325 0 1
1.14 0 1
1.1475 0 1
1.155 0 1
1.1625 0 1
1.17 0 1
1.1775 0 1
1.185 0 1
1.1925 0 1
1.2 0 1
1.2075 0 1
1.215 0 1
1.2225 0 1
1.23 0 1
1.2375 0 1
1.245 0 1
1.2525 0 1
1.26 0 1
1.2675 0 1
1.275 0 1
1.2825 0 1
1.29 0 1
1.2975 0 1
1.305 0 1
1.3125 0 1
1.32 0 1
1.3275 0 1
1.335 0 1
1.3425 0 1
1.35 0 1
1.3575 0 1
1.365 0 1
1.3725 0 1
1.38 0 1
1.3875 0 1
1.395 0 1
1.4025 0 1
1.41 0 1
1.4175 0 1
1.425 0 1
1.4325 0 1
1.44 0 1
1.4475 0 1
1.455 0 1
1.4625 0 1
1.47 0 1
1.4775 0 1
1.485 0 1
1.4925 0 1
0.0075 1 1
0.015 1 1
0.0225 1 1
0.03 1 1
0.0375 1 1
0.045 1 1
0.0525 1 1
0.06 1 1
0.0675 1 1
0.075 1 1
0.0825 1 1
0.09 1 1
0.0975 1 1
0.105 1 1
0.1125 1 1
0.12 1 1
0.1275 1 1
0.135 1 1
0.1425 1 1
0.15 1 1
0.1575 1 1
0.165 1 1
0.1725 1 1
0.18 1 1
0.1875 1 1
0.195 1 1
0.2025 1 1
0.21 1 1
0.2175 1 1
0.225 1 1
0.2325 1 1
0.24 1 1
0.2475 1 1
0.255 1 1
0.2625 1 1
0.27 1 1
0.2775 1 1
0.285 1 1
0.2925 1 1
0.3 1 1
0.3075 1 1
0.315 1 1
0.3225 1 1
0.33 1 1
0.3375 1 1
0.345 1 1
0.3525 1 1
0.36 1 1
0.3675 1 1
0.375 1 1
0.3825 1 1
0.39 1 1
0.3975 1 1
0.405 1 1
0.4125 1 1
0.42 1 1
0.4275 1 1
0.435 1 1
0.4425 1 1
0.45 1 1
0.4575 1 1
0.465 1 1
0.4725 1 1
0.48 1 1
0.4875 1 1
0.495 1 1
0.5025 1 1
0.51 1 1
0.5175 1 1
0.525 1 1
0.5325 1 1
0.54 1 1
0.5475 1 1
0.555 1 1
0.5625 1 1
0.57 1 1
0.5775 1 1
0.585 1 1
0.5925 1 1
0.6 1 1
0.6075 1 1
0.615 1 1
0.6225 1 1
0.63 1 1
0.6375 1 1
0.645 1 1
0.6525 1 1
0.66 1 1
0.6675 1 1
0.675 1 1
0.6825 1 1
0.69 1 1
0.6975 1 1
0.705 1 1
0.7125 1 1
0.72 1 1
0.7275 1 1
0.735 1 1
0.7425 1 1
0.75 1 1
0.7575 1 1
0.765 1 1
0.7725 1 1
0.78 1 1
0.7875 1 1
0.795 1 1
0.8025 1 1
0.81 1 1
0.8175 1 1
0.825 1 1
0.8325 1 1
0.84 1 1
0.8475 1 1
0.855 1 1
0.8625 1 1
0.87 1 1
0.8775 1 1
0.885 1 1
0.8925 1 1
0.9 1 1
0.9075 1 1
0.915 1 1
0.9225 1 1
0.93 1 1
0.9375 1 1
0.945 1 1
0.9525 1 1
0.96 1 1
0.9675 1 1
0.975 1 1
0.9825 1 1
0.99 1 1
0.9975 1 1
1.005 1 1
1.0125 1 1
1.02 1 1
1.0275 1 1
1.035 1 1
1.0425 1 1
1.05 1 1
1.0575 1 1
1.065 1 1
1.0725 1 1
1.08 1 1
1.0875 1 1
1.095 1 1
1.1025 1 1
1.11 1 1
1.1175 1 1
1.125 1 1
1.1325 1 1
1.14 1 1
1.1475 1 1
1.155 1 1
1.1625 1 1
1.17 1 1
1.1775 1 1
1.185 1 1
1.1925 1 1
1.2 1 1
1.2075 1 1
1.215 1 1
1.2225 1 1
1.23 1 1
1.2375 1 1
1.245 1 1
1.2525 1 1
1.26 1 1
1.2675 1 1
1.275 1 1
1.2825 1 1
1.29 1 1
1.2975 1 1
1.305 1 1
1.3125 1 1
1.32 1 1
1.3275 1 1
1.335 1 1
1.3425 1 1
1.35 1 1
1.3575 1 1
1.365 1 1
1.3725 1 1
1.38 1 1
1.3875 1 1
1.395 1 1
1.4025 1 1
1.41 1 1
1.4175 1 1
1.425 1 1
1.4325 1 1
1.44 1 1
1.4475 1 1
1.455 1 1
1.4625 1 1
1.47 1 1
1.4775 1 1
1.485 1 1
1.4925 1 1
0.0075 1 0
0.015 1 0
0.0225 1 0
0.03 1 0
0.0375 1 0
0.045 1 0
0.0525 1 0
0.06 1 0
0.0675 1 0
0.075 1 0
0.0825 1 0
0.09 1 0
0.0975 1 0
0.105 1 0
0.1125 1 0
0.12 1 0
0.1275 1 0
0.135 1 0
0.1425 1 0
0.15 1 0
0.1575 1 0
0.165 1 0
0.1725 1 0
0.18 1 0
0.1875 1 0
0.195 1 0
0.2025 1 0
0.21 1 0
0.2175 1 0
0.225 1 0
0.2325 1 0
0.24 1 0
0.2475 1 0
0.255 1 0
0.2625 1 0
0.27 1 0
0.2775 1 0
0.285 1 0
0.2925 1 0
0.3 1 0
0.3075 1 0
0.315 1 0
0.3225 1 0
0.33 1 0
0.3375 1 0
0.345 1 0
0.3525 1 0
0.36 1 0
0.3675 1 0
0.375 1 0
0.3825 1 0
0.39 1 0
0.3975 1 0
0.405 1 0
0.4125 1 0
0.42 1 0
0.4275 1 0
0.435 1 0
0.4425 1 0
0.45 1 0
0.4575 1 0
0.465 1 0
0.4725 1 0
0.48 1 0
0.4875 1 0
0.495 1 0
0.5025 1 0
0.51 1 0
0.5175 1 0
0.525 1 0
0.5325 1 0
0.54 1 0
0.5475 1 0
0.555 1 0
0.5625 1 0
0.57 1 0
0.5775 1 0
0.585 1 0
0.5925 1 0
0.6 1 0
0.6075 1 0
0.615 1 0
0.6225 1 0
0.63 1 0
0.6375 1 0
0.645 1 0
0.6525 1 0
0.66 1 0
0.6675 1 0
0.675 1 0
0.6825 1 0
0.69 1 0
0.6975 1 0
0.705 1 0
0.7125 1 0
0.72 1 0
0.7275 1 0
0.735 1 0
0.7425 1 0
0.75 1 0
0.7575 1 0
0.765 1 0
0.7725 1 0
0.78 1 0
0.7875 1 0
0.795 1 0
0.8025 1 0
0.81 1 0
0.8175 1 0
0.825 1 0
0.8325 1 0
0.84 1 0
0.8475 1 0
0.855 1 0
0.8625 1 0
0.87 1 0
0.8775 1 0
0.885 1 0
0.8925 1 0
0.9 1 0
0.9075 1 0
0.915 1 0
0.9225 1 0
0.93 1 0
0.9375 1 0
0.945 1 0
0.9525 1 0
0.96 1 0
0.9675 1 0
0.975 1 0
0.9825 1 0
0.99 1 0
0.9975 1 0
1.005 1 0
1.0125 1 0
1.02 1 0
1.0275 1 0
1.035 1 0
1.0425 1 0
1.05 1 0
1.0575 1 0
1.065 1 0
1.0725 1 0
1.08 1 0
1.0875 1 0
1.095 1 0
1.1025 1 0
1.11 1 0
1.1175 1 0
1.125 1 0
1.1325 1 0
1.14 1 0
1.1475 1 0
1.155 1 0
1.1625 1 0
1.17 1 0
1.1775 1 0
1.185 1 0
1.1925 1 0
1.2 1 0
1.2075 1 0
1.215 1 0
1.2225 1 0
1.23 1 0
1.2375 1 0
1.245 1 0
1.2525 1 0
1.26 1 0
1.2675 1 0
1.275 1 0
1.2825 1 0
1.29 1 0
1.2975 1 0
1.305 1 0
1.3125 1 0
1.32 1 0
1.3275 1 0
1.335 1 0
1.3425 1 0
1.35 1 0
1.3575 1 0
1.365 1 0
1.3725 1 0
1.38 1 0
1.3875 1 0
1.395 1 0
1.4025 1 0
1.41 1 0
1.4175 1 0
1.425 1 0
1.4325 1 0
1.44 1 0
1.4475 1 0
1.455 1 0
1.4625 1 0
1.47 1 0
1.4775 1 0
1.485 1 0
1.4925 1 0
CELLS 200 1800
8 2 1 0 3 406 207 8 605
8 406 207 8 605 407 208 9 606
8 407 208 9 606 408 209 10 607
8 408 209 10 607 409 210 11 608
8 409 210 11 608 410 211 12 609
8 410 211 12 609 411 212 13 610
8 411 212 13 610 412 213 14 611
8 412 213 14 611 413 214 15 612
8 413 214 15 612 414 215 16 613
8 414 215 16 613 415 216 17 614
8 415 216 17 614 416 217 18 615
8 416 217 18 615 417 218 19 616
8 417 218 19 616 418 219 20 617
8 418 219 20 617 419 220 21 618
8 419 220 21 618 420 221 22 619
8 420 221 22 619 421 222 23 620
8 421 222 23 620 422 223 24 621
8 422 223 24 621 423 224 25 622
8 423 224 25 622 424 225 26 623
8 424 225 26 623 425 226 27 624
8 425 226 27 624 426 227 28 625
8 426 227 28 625 427 228 29 626
8 427 228 29 626 428 229 30 627
8 428 229 30 627 429 230 31 628
8 429 230 31 628 430 231 32 629
8 430 231 32 629 431 232 33 630
8 431 232 33 630 432 233 34 631
8 432 233 34 631 433 234 35 632
8 433 234 35 632 434 235 36 633
8 434 235 36 633 435 236 37 634
8 435 236 37 634 436 237 38 635
8 436 237 38 635 437 238 39 636
8 437 238 39 636 438 239 40 637
8 438 239 40 637 439 240 41 638
8 439 240 41 638 440 241 42 639
8 440 241 42 639 441 242 43 640
8 441 242 43 640 442 243 44 641
8 442 243 44 641 443 244 45 642
8 443 244 45 642 444 245 46 643
8 444 245 46 643 445 246 47 644
8 445 246 47 644 446 247 48 645
8 446 247 48 645 447 248 49 646
8 447 248 49 646 448 249 50 647
8 448 249 50 647 449 250 51 648
8 449 250 51 648 450 251 52 649
8 450 251 52 649 451 252 53 650
8 451 252 53 650 452 253 54 651
8 452 253 54 651 453 254 55 652
8 453 254 55 652 454 255 56 653
8 454 255 56 653 455 256 57 654
8 455 256 57 654 456 257 58 655
8 456 257 58 655 457 258 59 656
8 457 258 59 656 458 259 60 657
8 458 259 60 657 459 260 61 658
8 459 260 61 658 460 261 62 659
8 460 261 62 659 461 262 63 660
8 461 262 63 660 462 263 64 661
8 462 263 64 661 463 264 65 662
8 463 264 65 662 464 265 66 663
8 464 265 66 663 465 266 67 664
8 465 266 67 664 466 267 68 665
8 466 267 68 665 467 268 69 666
8 467 268 69 666 468 269 70 667
8 468 269 70 667 469 270 71 668
8 469 270 71 668 470 271 72 669
8 470 271 72 669 471 272 73 670
8 471 272 73 670 472 273 74 671
8 472 273 74 671 473 274 75 672
8 473 274 75 672 474 275 76 673
8 474 275 76 673 475 276 77 674
8 475 276 77 674 476 277 78 675
8 476 277 78 675 477 278 79 676
8 477 278 79 676 478 279 80 677
8 478 279 80 677 479 280 81 678
8 479 280 81 678 480 281 82 679
8 480 281 82 679 481 282 83 680
8 481 282 83 680 482 283 84 681
8 482 283 84 681 483 284 85 682
8 483 284 85 682 484 285 86 683
8 484 285 86 683 485 286 87 684
8 485 286 87 684 486 287 88 685
8 486 287 88 685 487 288 89 686
8 487 288 89 686 488 289 90 687
8 488 289 90 687 489 290 91 688
8 489 290 91 688 490 291 92 689
8 490 291 92 689 491 292 93 690
8 491 292 93 690 492 293 94 691
8 492 293 94 691 493 294 95 692
8 493 294 95 692 494 295 96 693
8 494 295 96 693 495 296 97 694
8 495 296 97 694 496 297 98 695
8 496 297 98 695 497 298 99 696
8 497 298 99 696 498 299 100 697
8 498 299 100 697 499 300 101 698
8 499 300 101 698 500 301 102 699
8 500 301 102 699 501 302 103 700
8 501 302 103 700 502 303 104 701
8 502 303 104 701 503 304 105 702
8 503 304 105 702 504 305 106 703
8 504 305 106 703 505 306 107 704
8 505 306 107 704 506 307 108 705
8 506 307 108 705 507 308 109 706
8 507 308 109 706 508 309 110 707
8 508 309 110 707 509 310 111 708
8 509 310 111 708 510 311 112 709
8 510 311 112 709 511 312 113 710
8 511 312 113 710 512 313 114 711
8 512 313 114 711 513 314 115 712
8 513 314 115 712 514 315 116 713
8 514 315 116 713 515 316 117 714
8 515 316 117 714 516 317 118 715
8 516 317 118 715 517 318 119 716
8 517 318 119 716 518 319 120 717
8 518 319 120 717 519 320 121 718
8 519 320 121 718 520 321 122 719
8 520 321 122 719 521 322 123 720
8 521 322 123 720 522 323 124 721
8 522 323 124 721 523 324 125 722
8 523 324 125 722 524 325 126 723
8 524 325 126 723 525 326 127 724
8 525 326 127 724 526 327 128 725
8 526 327 128 725 527 328 129 726
8 527 328 129 726 528 329 130 727
8 528 329 130 727 529 330 131 728
8 529 330 131 728 530 331 132 729
8 530 331 132 729 531 332 133 730
8 531 332 133 730 532 333 134 731
8 532 333 134 731 533 334 135 732
8 533 334 135 732 534 335 136 733
8 534 335 136 733 535 336 137 734
8 535 336 137 734 536 337 138 735
8 536 337 138 735 537 338 139 736
8 537 338 139 736 538 339 140 737
8 538 339 140 737 539 340 141 738
8 539 340 141 738 540 341 142 739
8 540 341 142 739 541 342 143 740
8 541 342 143 740 542 343 144 741
8 542 343 144 741 543 344 145 742
8 543 344 145 742 544 345 146 743
8 544 345 146 743 545 346 147 744
8 545 346 147 744 546 347 148 745
8 546 347 148 745 547 348 149 746
8 547 348 149 746 548 349 150 747
8 548 349 150 747 549 350 151 748
8 549 350 151 748 550 351 152 749
8 550 351 152 749 551 352 153 750
8 551 352 153 750 552 353 154 751
8 552 353 154 751 553 354 155 752
8 553 354 155 752 554 355 156 753
8 554 355 156 753 555 356 157 754
8 555 356 157 754 556 357 158 755
8 556 357 158 755 557 358 159 756
8 557 358 159 756 558 359 160 757
8 558 359 160 757 559 360 161 758
8 559 360 161 758 560 361 162 759
8 560 361 162 759 561 362 163 760
8 561 362 163 760 562 363 164 761
8 562 363 164 761 563 364 165 762
8 563 364 165 762 564 365 166 763
8 564 365 166 763 565 366 167 764
8 565 366 167 764 566 367 168 765
8 566 367 168 765 567 368 169 766
8 567 368 169 766 568 369 170 767
8 568 369 170 767 569 370 171 768
8 569 370 171 768 570 371 172 769
8 570 371 172 769 571 372 173 770
8 571 372 173 770 572 373 174 771
8 572 373 174 771 573 374 175 772
8 573 374 175 772 574 375 176 773
8 574 375 176 773 575 376 177 774
8 575 376 177 774 576 377 178 775
8 576 377 178 775 577 378 179 776
8 577 378 179 776 578 379 180 777
8 578 379 180 777 579 380 181 778
8 579 380 181 778 580 381 182 779
8 580 381 182 779 581 382 183 780
8 581 382 183 780 582 383 184 781
8 582 383 184 781 583 384 185 782
8 583 384 185 782 584 385 186 783
8 584 385 186 783 585 386 187 784
8 585 386 187 784 586 387 188 785
8 586 387 188 785 587 388 189 786
8 587 388 189 786 588 389 190 787
8 588 389 190 787 589 390 191 788
8 589 390 191 788 590 391 192 789
8 590 391 192 789 591 392 193 790
8 591 392 193 790 592 393 194 791
8 592 393 194 791 593 394 195 792
8 593 394 195 792 594 395 196 793
8 594 395 196 793 595 396 197 794
8 595 396 197 794 596 397 198 795
8 596 397 198 795 597 398 199 796
8 597 398 199 796 598 399 200 797
8 598 399 200 797 599 400 201 798
8 599 400 201 798 600 401 202 799
8 600 401 202 799 601 402 203 800
8 601 402 203 800 602 403 204 801
8 602 403 204 801 603 404 205 802
8 603 404 205 802 604 405 206 803
8 604 405 206 803 6 5 4 7
CELL_TYPES 200
12
12
12
12
12
12
12
12
12
12
12
12
12
12
12
12
12
12
12
12
12
12
12
12
12
12
12
12
12
12
12
12
12
12
12
12
12
12
12
12
12
12
12
12
12
12
12
12
12
12
12
12
12
12
12
12
12
12
12
12
12
12
12
12
12
12
12
12
12
12
12
12
12
12
12
12
12
12
12
12
12
12
12
12
12
12
12
12
12
12
12
12
12
12
12
12
12
12
12
12
12
12
12
12
12
12
12
12
12
12
12
12
12
12
12
12
12
12
12
12
12
12
12
12
12
12
12
12
12
12
12
12
12
12
12
12
12
12
12
12
12
12
12
12
12
12
12
12
12
12
12
12
12
12
12
12
12
12
12
12
12
12
12
12
12
12
12
12
12
12
12
12
12
12
12
12
12
12
12
12
12
12
12
12
12
12
12
12
12
12
12
12
12
12
12
12
12
12
12
12
POINT_DATA 804
SCALARS GLOBAL_ID int 1
LOOKUP_TABLE default
0 
1 
2 
3 
4 
5 
6 
7 
8 
9 
10 
11 
12 
13 
14 
15 
16 
17 
18 
19 
20 
21 
22 
23 
24 
25 
26 
27 
28 
29 
30 
31 
32 
33 
34 
35 
36 
37 
38 
39 
40 
41 
42 
43 
44 
45 
46 
47 
48 
49 
50 
51 
52 
53 
54 
55 
56 
57 
58 
59 
60 
61 
62 
63 
64 
65 
66 
67 
68 
69 
70 
71 
72 
73 
74 
75 
76 
77 
78 
79 
80 
81 
82 
83 
84 
85 
86 
87 
88 
89 
90 
91 
92 
93 
94 
95 
96 
97 
98 
99 
100 
101 
102 
103 
104 
105 
106 
107 
108 
109 
110 
111 
112 
113 
114 
115 
116 
117 
118 
119 
120 
121 
122 
123 
124 
125 
126 
127 
128 
129 
130 
131 
132 
133 
134 
135 
136 
137 
138 
139 
140 
141 
142 
143 
144 
145 
146 
147 
148 
149 
150 
151 
152 
153 
154 
155 
156 
157 
158 
159 
160 
161 
162 
163 
164 
165 
166 
167 
168 
169 
170 
171 
172 
173 
174 
175 
176 
177 
178 
179 
180 
181 
182 
183 
184 
185 
186 
187 
188 
189 
190 
191 
192 
193 
194 
195 
196 
197 
198 
199 
200 
201 
202 
203 
204 
205 
206 
207 
208 
209 
210 
211 
212 
213 
214 
215 
216 
217 
218 
219 
220 
221 
222 
223 
224 
225 
226 
227 
228 
229 
230 
231 
232 
233 
234 
235 
236 
237 
238 
239 
240 
241 
242 
243 
244 
245 
246 
247 
248 
249 
250 
251 
252 
253 
254 
255 
256 
257 
258 
259 
260 
261 
262 
263 
264 
265 
266 
267 
268 
269 
270 
271 
272 
273 
274 
275 
276 
277 
278 
279 
280 
281 
282 
283 
284 
285 
286 
287 
288 
289 
290 
291 
292 
293 
294 
295 
296 
297 
298 
299 
300 
301 
302 
303 
304 
305 
306 
307 
308 
309 
310 
311 
312 
313 
314 
315 
316 
317 
318 
319 
320 
321 
322 
323 
324 
325 
326 
327 
328 
329 
330 
331 
332 
333 
334 
335 
336 
337 
338 
339 
340 
341 
342 
343 
344 
345 
346 
347 
348 
349 
350 
351 
352 
353 
354 
355 
356 
357 
358 
359 
360 
361 
362 
363 
364 
365 
366 
367 
368 
369 
370 
371 
372 
373 
374 
375 
376 
377 
378 
379 
380 
381 
382 
383 
384 
385 
386 
387 
388 
389 
390 
391 
392 
393 
394 
395 
396 
397 
398 
399 
400 
401 
402 
403 
404 
405 
406 
407 
408 
409 
410 
411 
412 
413 
414 
415 
416 
417 
418 
419 
420 
421 
422 
423 
424 
425 
426 
427 
428 
429 
430 
431 
432 
433 
434 
435 
436 
437 
438 
439 
440 
441 
442 
443 
444 
445 
446 
447 
448 
449 
450 
451 
452 
453 
454 
455 
456 
457 
458 
459 
460 
461 
462 
463 
464 
465 
466 
467 
468 
469 
470 
471 
472 
473 
474 
475 
476 
477 
478 
479 
480 
481 
482 
483 
484 
485 
486 
487 
488 
489 
490 
491 
492 
493 
494 
495 
496 
497 
498 
499 
500 
501 
502 
503 
504 
505 
506 
507 
508 
509 
510 
511 
512 
513 
514 
515 
516 
517 
518 
519 
520 
521 
522 
523 
524 
525 
526 
527 
528 
529 
530 
531 
532 
533 
534 
535 
536 
537 
538 
539 
540 
541 
542 
543 
544 
545 
546 
547 
548 
549 
550 
551 
552 
553 
554 
555 
556 
557 
558 
559 
560 
561 
562 
563 
564 
565 
566 
567 
568 
569 
570 
571 
572 
573 
574 
575 
576 
577 
578 
579 
580 
581 
582 
583 
584 
585 
586 
587 
588 
589 
590 
591 
592 
593 
594 
595 
596 
597 
598 
599 
600 
601 
602 
603 
604 
605 
606 
607 
608 
609 
610 
611 
612 
613 
614 
615 
616 
617 
618 
619 
620 
621 
622 
623 
624 
625 
626 
627 
628 
629 
630 
631 
632 
633 
634 
635 
636 
637 
638 
639 
640 
641 
642 
643 
644 
645 
646 
647 
648 
649 
650 
651 
652 
653 
654 
655 
656 
657 
658 
659 
660 
661 
662 
663 
664 
665 
666 
667 
668 
669 
670 
671 
672 
673 
674 
675 
676 
677 
678 
679 
680 
681 
682 
683 
684 
685 
686 
687 
688 
689 
690 
691 
692 
693 
694 
695 
696 
697 
698 
699 
700 
701 
702 
703 
704 
705 
706 
707 
708 
709 
710 
711 
712 
713 
714 
715 
716 
717 
718 
719 
720 
721 
722 
723 
724 
725 
726 
727 
728 
729 
730 
731 
732 
733 
734 
735 
736 
737 
738 
739 
740 
741 
742 
743 
744 
745 
746 
747 
748 
749 
750 
751 
752 
753 
754 
755 
756 
757 
758 
759 
760 
761 
762 
763 
764 
765 
766 
767 
768 
769 
770 
771 
772 
773 
774 
775 
776 
777 
778 
779 
780 
781 
782 
783 
784 
785 
786 
787 
788 
789 
790 
791 
792 
793 
794 
795 
796 
797 
798 
799 
800 
801 
802 
803 
VECTORS NODES double
0 0 0 
0 0 1 
0 1 1 
0 1 0 
1.5 0 0 
1.5 0 1 
1.5 1 1 
1.5 1 0 
0.0075 0 0 
0.015 0 0 
0.0225 0 0 
0.03 0 0 
0.0375 0 0 
0.045 0 0 
0.0525 0 0 
0.06 0 0 
0.0675 0 0 
0.075 0 0 
0.0825 0 0 
0.09 0 0 
0.0975 0 0 
0.105 0 0 
0.1125 0 0 
0.12 0 0 
0.1275 0 0 
0.135 0 0 
0.1425 0 0 
0.15 0 0 
0.1575 0 0 
0.165 0 0 
0.1725 0 0 
0.18 0 0 
0.1875 0 0 
0.195 0 0 
0.2025 0 0 
0.21 0 0 
0.2175 0 0 
0.225 0 0 
0.2325 0 0 
0.24 0 0 
0.2475 0 0 
0.255 0 0 
0.2625 0 0 
0.27 0 0 
0.2775 0 0 
0.285 0 0 
0.2925 0 0 
0.3 0 0 
0.3075 0 0 
0.315 0 0 
0.3225 0 0 
0.33 0 0 
0.3375 0 0 
0.345 0 0 
0.3525 0 0 
0.36 0 0 
0.3675 0 0 
0.375 0 0 
0.3825 0 0 
0.39 0 0 
0.3975 0 0 
0.405 0 0 
0.4125 0 0 
0.42 0 0 
0.4275 0 0 
0.435 0 0 
0.4425 0 0 
0.45 0 0 
0.4575 0 0 
0.465 0 0 
0.4725 0 0 
0.48 0 0 
0.4875 0 0 
0.495 0 0 
0.5025 0 0 
0.51 0 0 
0.5175 0 0 
0.525 0 0 
0.5325 0 0 
0.54 0 0 
0.5475 0 0 
0.555 0 0 
0.5625 0 0 
0.57 0 0 
0.5775 0 0 
0.585 0 0 
0.5925 0 0 
0.6 0 0 
0.6075 0 0 
0.615 0 0 
0.6225 0 0 
0.63 0 0 
0.6375 0 0 
0.645 0 0 
0.6525 0 0 
0.66 0 0 
0.6675 0 0 
0.675 0 0 
0.6825 0 0 
0.69 0 0 
0.6975 0 0 
0.705 0 0 
0.7125 0 0 
0.72 0 0 
0.7275 0 0 
0.735 0 0 
0.7425 0 0 
0.75 0 0 
0.7575 0 0 
0.765 0 0 
0.7725 0 0 
0.78 0 0 
0.7875 0 0 
0.795 0 0 
0.8025 0 0 
0.81 0 0 
0.8175 0 0 
0.825 0 0 
0.8325 0 0 
0.84 0 0 
0.8475 0 0 
0.855 0 0 
0.8625 0 0 
0.87 0 0 
0.8775 0 0 
0.885 0 0 
0.8925 0 0 
0.9 0 0 
0.9075 0 0 
0.915 0 0 
0.9225 0 0 
0.93 0 0 
0.9375 0 0 
0.945 0 0 
0.9525 0 0 
0.96 0 0 
0.9675 0 0 
0.975 0 0 
0.9825 0 0 
0.99 0 0 
0.9975 0 0 
1.005 0 0 
1.0125 0 0 
1.02 0 0 
1.0275 0 0 
1.035 0 0 
1.0425 0 0 
1.05 0 0 
1.0575 0 0 
1.065 0 0 
1.0725 0 0 
1.08 0 0 
1.0875 0 0 
1.095 0 0 
1.1025 0 0 
1.11 0 0 
1.1175 0 0 
1.125 0 0 
1.1325 0 0 
1.14 0 0 
1.1475 0 0 
1.155 0 0 
1.1625 0 0 
1.17 0 0 
1.1775 0 0 
1.185 0 0 
1.1925 0 0 
1.2 0 0 
1.2075 0 0 
1.215 0 0 
1.2225 0 0 
1.23 0 0 
1.2375 0 0 
1.245 0 0 
1.2525 0 0 
1.26 0 0 
1.2675 0 0 
1.275 0 0 
1.2825 0 0 
1.29 0 0 
1.2975 0 0 
1.305 0 0 
1.3125 0 0 
1.32 0 0 
1.3275 0 0 
1.335 0 0 
1.3425 0 0 
1.35 0 0 
1.3575 0 0 
1.365 0 0 
1.3725 0 0 
1.38 0 0 
1.3875 0 0 
1.395 0 0 
1.4025 0 0 
1.41 0 0 
1.4175 0 0 
1.425 0 0 
1.4325 0 0 
1.44 0 0 
1.4475 0 0 
1.455 0 0 
1.4625 0 0 
1.47 0 0 
1.4775 0 0 
1.485 0 0 
1.4925 0 0 
0.0075 0 1 
0.015 0 1 
0.0225 0 1 
0.03 0 1 
0.0375 0 1 
0.045 0 1 
0.0525 0 1 
0.06 0 1 
0.0675 0 1 
0.075 0 1 
0.0825 0 1 
0.09 0 1 
0.0975 0 1 
0.105 0 1 
0.1125 0 1 
0.12 0 1 
0.1275 0 1 
0.135 0 1 
0.1425 0 1 
0.15 0 1 
0.1575 0 1 
0.165 0 1 
0.1725 0 1 
0.18 0 1 
0.1875 0 1 
0.195 0 1 
0.2025 0 1 
0.21 0 1 
0.2175 0 1 
0.225 0 1 
0.2325 0 1 
0.24 0 1 
0.2475 0 1 
0.255 0 1 
0.2625 0 1 
0.27 0 1 
0.2775 0 1 
0.285 0 1 
0.2925 0 1 
0.3 0 1 
0.3075 0 1 
0.315 0 1 
0.3225 0 1 
0.33 0 1 
0.3375 0 1 
0.345 0 1 
0.3525 0 1 
0.36 0 1 
0.3675 0 1 
0.375 0 1 
0.3825 0 1 
0.39 0 1 
0.3975 0 1 
0.405 0 1 
0.4125 0 1 
0.42 0 1 
0.4275 0 1 
0.435 0 1 
0.4425 0 1 
0.45 0 1 
0.4575 0 1 
0.465 0 1 
0.4725 0 1 
0.48 0 1 
0.4875 0 1 
0.495 0 1 
0.5025 0 1 
0.51 0 1 
0.5175 0 1 
0.525 0 1 
0.5325 0 1 
0.54 0 1 
0.5475 0 1 
0.555 0 1 
0.5625 0 1 
0.57 0 1 
0.5775 0 1 
0.585 0 1 
0.5925 0 1 
0.6 0 1 
0.6075 0 1 
0.615 0 1 
0.6225 0 1 
0.63 0 1 
0.6375 0 1 
0.645 0 1 
0.6525 0 1 
0.66 0 1 
0.6675 0 1 
0.675 0 1 
0.6825 0 1 
0.69 0 1 
0.6975 0 1 
0.705 0 1 
0.7125 0 1 
0.72 0 1 
0.7275 0 1 
0.735 0 1 
0.7425 0 1 
0.75 0 1 
0.7575 0 1 
0.765 0 1 
0.7725 0 1 
0.78 0 1 
0.7875 0 1 
0.795 0 1 
0.8025 0 1 
0.81 0 1 
0.8175 0 1 
0.825 0 1 
0.8325 0 1 
0.84 0 1 
0.8475 0 1 
0.855 0 1 
0.8625 0 1 
0.87 0 1 
0.8775 0 1 
0.885 0 1 
0.8925 0 1 
0.9 0 1 
0.9075 0 1 
0.915 0 1 
0.9225 0 1 
0.93 0 1 
0.9375 0 1 
0.945 0 1 
0.9525 0 1 
0.96 0 1 
0.9675 0 1 
0.975 0 1 
0.9825 0 1 
0.99 0 1 
0.9975 0 1 
1.005 0 1 
1.0125 0 1 
1.02 0 1 
1.0275 0 1 
1.035 0 1 
1.0425 0 1 
1.05 0 1 
1.0575 0 1 
1.065 0 1 
1.0725 0 1 
1.08 0 1 
1.0875 0 1 
1.095 0 1 
1.1025 0 1 
1.11 0 1 
1.1175 0 1 
1.125 0 1 
1.1325 0 1 
1.14 0 1 
1.1475 0 1 
1.155 0 1 
1.1625 0 1 
1.17 0 1 
1.1775 0 1 
1.185 0 1 
1.1925 0 1 
1.2 0 1 
1.2075 0 1 
1.215 0 1 
1.2225 0 1 
1.23 0 1 
1.2375 0 1 
1.245 0 1 
1.2525 0 1 
1.26 0 1 
1.2675 0 1 
1.275 0 1 
1.2825 0 1 
1.29 0 1 
1.2975 0 1 
1.305 0 1 
1.3125 0 1 
1.32 0 1 
1.3275 0 1 
1.335 0 1 
1.3425 0 1 
1.35 0 1 
1.3575 0 1 
1.365 0 1 
1.3725 0 1 
1.38 0 1 
1.3875 0 1 
1.395 0 1 
1.4025 0 1 
1.41 0 1 
1.4175 0 1 
1.425 0 1 
1.4325 0 1 
1.44 0 1 
1.4475 0 1 
1.455 0 1 
1.4625 0 1 
1.47 0 1 
1.4775 0 1 
1.485 0 1 
1.4925 0 1 
0.0075 1 1 
0.015 1 1 
0.0225 1 1 
0.03 1 1 
0.0375 1 1 
0.045 1 1 
0.0525 1 1 
0.06 1 1 
0.0675 1 1 
0.075 1 1 
0.0825 1 1 
0.09 1 1 
0.0975 1 1 
0.105 1 1 
0.1125 1 1 
0.12 1 1 
0.1275 1 1 
0.135 1 1 
0.1425 1 1 
0.15 1 1 
0.1575 1 1 
0.165 1 1 
0.1725 1 1 
0.18 1 1 
0.1875 1 1 
0.195 1 1 
0.2025 1 1 
0.21 1 1 
0.2175 1 1 
0.225 1 1 
0.2325 1 1 
0.24 1 1 
0.2475 1 1 
0.255 1 1 
0.2625 1 1 
0.27 1 1 
0.2775 1 1 
0.285 1 1 
0.2925 1 1 
0.3 1 1 
0.3075 1 1 
0.315 1 1 
0.3225 1 1 
0.33 1 1 
0.3375 1 1 
0.345 1 1 
0.3525 1 1 
0.36 1 1 
0.3675 1 1 
0.375 1 1 
0.3825 1 1 
0.39 1 1 
0.3975 1 1 
0.405 1 1 
0.4125 1 1 
0.42 1 1 
0.4275 1 1 
0.435 1 1 
0.4425 1 1 
0.45 1 1 
0.4575 1 1 
0.465 1 1 
0.4725 1 1 
0.48 1 1 
0.4875 1 1 
0.495 1 1 
0.5025 1 1 
0.51 1 1 
0.5175 1 1 
0.525 1 1 
0.5325 1 1 
0.54 1 1 
0.5475 1 1 
0.555 1 1 
0.5625 1 1 
0.57 1 1 
0.5775 1 1 
0.585 1 1 
0.5925 1 1 
0.6 1 1 
0.6075 1 1 
0.615 1 1 
0.6225 1 1 
0.63 1 1 
0.6375 1 1 
0.645 1 1 
0.6525 1 1 
0.66 1 1 
0.6675 1 1 
0.675 1 1 
0.6825 1 1 
0.69 1 1 
0.6975 1 1 
0.705 1 1 
0.7125 1 1 
0.72 1 1 
0.7275 1 1 
0.735 1 1 
0.7425 1 1 
0.75 1 1 
0.7575 1 1 
0.765 1 1 
0.7725 1 1 
0.78 1 1 
0.7875 1 1 
0.795 1 1 
0.8025 1 1 
0.81 1 1 
0.8175 1 1 
0.825 1 1 
0.8325 1 1 
0.84 1 1 
0.8475 1 1 
0.855 1 1 
0.8625 1 1 
0.87 1 1 
0.8775 1 1 
0.885 1 1 
0.8925 1 1 
0.9 1 1 
0.9075 1 1 
0.915 1 1 
0.9225 1 1 
0.93 1 1 
0.9375 1 1 
0.945 1 1 
0.9525 1 1 
0.96 1 1 
0.9675 1 1 
0.975 1 1 
0.9825 1 1 
0.99 1 1 
0.9975 1 1 
1.005 1 1 
1.0125 1 1 
1.02 1 1 
1.0275 1 1 
1.035 1 1 
1.0425 1 1 
1.05 1 1 
1.0575 1 1 
1.065 1 1 
1.0725 1 1 
1.08 1 1 
1.0875 1 1 
1.095 1 1 
1.1025 1 1 
1.11 1 1 
1.1175 1 1 
1.125 1 1 
1.1325 1 1 
1.14 1 1 
1.1475 1 1 
1.155 1 1 
1.1625 1 1 
1.17 1 1 
1.1775 1 1 
1.185 1 1 
1.1925 1 1 
1.2 1 1 
1.2075 1 1 
1.215 1 1 
1.2225 1 1 
1.23 1 1 
1.2375 1 1 
1.245 1 1 
1.2525 1 1 
1.26 1 1 
1.2675 1 1 
1.275 1 1 
1.2825 1 1 
1.29 1 1 
1.2975 1 1 
1.305 1 1 
1.3125 1 1 
1.32 1 1 
1.3275 1 1 
1.335 1 1 
1.3425 1 1 
1.35 1 1 
1.3575 1 1 
1.365 1 1 
1.3725 1 1 
1.38 1 1 
1.3875 1 1 
1.395 1 1 
1.4025 1 1 
1.41 1 1 
1.4175 1 1 
1.425 1 1 
1.4325 1 1 
1.44 1 1 
1.4475 1 1 
1.455 1 1 
1.4625 1 1 
1.47 1 1 
1.4775 1 1 
1.485 1 1 
1.4925 1 1 
0.0075 1 0 
0.015 1 0 
0.0225 1 0 
0.03 1 0 
0.0375 1 0 
0.045 1 0 
0.0525 1 0 
0.06 1 0 
0.0675 1 0 
0.075 1 0 
0.0825 1 0 
0.09 1 0 
0.0975 1 0 
0.105 1 0 
0.1125 1 0 
0.12 1 0 
0.1275 1 0 
0.135 1 0 
0.1425 1 0 
0.15 1 0 
0.1575 1 0 
0.165 1 0 
0.1725 1 0 
0.18 1 0 
0.1875 1 0 
0.195 1 0 
0.2025 1 0 
0.21 1 0 
0.2175 1 0 
0.225 1 0 
0.2325 1 0 
0.24 1 0 
0.2475 1 0 
0.255 1 0 
0.2625 1 0 
0.27 1 0 
0.2775 1 0 
0.285 1 0 
0.2925 1 0 
0.3 1 0 
0.3075 1 0 
0.315 1 0 
0.3225 1 0 
0.33 1 0 
0.3375 1 0 
0.345 1 0 
0.3525 1 0 
0.36 1 0 
0.3675 1 0 
0.375 1 0 
0.3825 1 0 
0.39 1 0 
0.3975 1 0 
0.405 1 0 
0.4125 1 0 
0.42 1 0 
0.4275 1 0 
0.435 1 0 
0.4425 1 0 
0.45 1 0 
0.4575 1 0 
0.465 1 0 
0.4725 1 0 
0.48 1 0 
0.4875 1 0 
0.495 1 0 
0.5025 1 0 
0.51 1 0 
0.5175 1 0 
0.525 1 0 
0.5325 1 0 
0.54 1 0 
0.5475 1 0 
0.555 1 0 
0.5625 1 0 
0.57 1 0 
0.5775 1 0 
0.585 1 0 
0.5925 1 0 
0.6 1 0 
0.6075 1 0 
0.615 1 0 
0.6225 1 0 
0.63 1 0 
0.6375 1 0 
0.645 1 0 
0.6525 1 0 
0.66 1 0 
0.6675 1 0 
0.675 1 0 
0.6825 1 0 
0.69 1 0 
0.6975 1 0 
0.705 1 0 
0.7125 1 0 
0.72 1 0 
0.7275 1 0 
0.735 1 0 
0.7425 1 0 
0.75 1 0 
0.7575 1 0 
0.765 1 0 
0.7725 1 0 
0.78 1 0 
0.7875 1 0 
0.795 1 0 
0.8025 1 0 
0.81 1 0 
0.8175 1 0 
0.825 1 0 
0.8325 1 0 
0.84 1 0 
0.8475 1 0 
0.855 1 0 
0.8625 1 0 
0.87 1 0 
0.8775 1 0 
0.885 1 0 
0.8925 1 0 
0.9 1 0 
0.9075 1 0 
0.915 1 0 
0.9225 1 0 
0.93 1 0 
0.9375 1 0 
0.945 1 0 
0.9525 1 0 
0.96 1 0 
0.9675 1 0 
0.975 1 0 
0.9825 1 0 
0.99 1 0 
0.9975 1 0 
1.005 1 0 
1.0125 1 0 
1.02 1 0 
1.0275 1 0 
1.035 1 0 
1.0425 1 0 
1.05 1 0 
1.0575 1 0 
1.065 1 0 
1.0725 1 0 
1.08 1 0 
1.0875 1 0 
1.095 1 0 
1.1025 1 0 
1.11 1 0 
1.1175 1 0 
1.125 1 0 
1.1325 1 0 
1.14 1 0 
1.1475 1 0 
1.155 1 0 
1.1625 1 0 
1.17 1 0 
1.1775 1 0 
1.185 1 0 
1.1925 1 0 
1.2 1 0 
1.2075 1 0 
1.215 1 0 
1.2225 1 0 
1.23 1 0 
1.2375 1 0 
1.245 1 0 
1.2525 1 0 
1.26 1 0 
1.2675 1 0 
1.275 1 0 
1.2825 1 0 
1.29 1 0 
1.2975 1 0 
1.305 1 0 
1.3125 1 0 
1.32 1 0 
1.3275 1 0 
1.335 1 0 
1.3425 1 0 
1.35 1 0 
1.3575 1 0 
1.365 1 0 
1.3725 1 0 
1.38 1 0 
1.3875 1 0 
1.395 1 0 
1.4025 1 0 
1.41 1 0 
1.4175 1 0 
1.425 1 0 
1.4325 1 0 
1.44 1 0 
1.4475 1 0 
1.455 1 0 
1.4625 1 0 
1.47 1 0 
1.4775 1 0 
1.485 1 0 
1.4925 1 0 
VECTORS centroid_nodes double
0 0 0 
0 0 1 
0 1 1 
0 1 0 
1.5 0 0 
1.5 0 1 
1.5 1 1 
1.5 1 0 
0.0075 0 0 
0.015 0 0 
0.0225 0 0 
0.03 0 0 
0.0375 0 0 
0.045 0 0 
0.0525 0 0 
0.06 0 0 
0.0675 0 0 
0.075 0 0 
0.0825 0 0 
0.09 0 0 
0.0975 0 0 
0.105 0 0 
0.1125 0 0 
0.12 0 0 
0.1275 0 0 
0.135 0 0 
0.1425 0 0 
0.15 0 0 
0.1575 0 0 
0.165 0 0 
0.1725 0 0 
0.18 0 0 
0.1875 0 0 
0.195 0 0 
0.2025 0 0 
0.21 0 0 
0.2175 0 0 
0.225 0 0 
0.2325 0 0 
0.24 0 0 
0.2475 0 0 
0.255 0 0 
0.2625 0 0 
0.27 0 0 
0.2775 0 0 
0.285 0 0 
0.2925 0 0 
0.3 0 0 
0.3075 0 0 
0.315 0 0 
0.3225 0 0 
0.33 0 0 
0.3375 0 0 
0.345 0 0 
0.3525 0 0 
0.36 0 0 
0.3675 0 0 
0.375 0 0 
0.3825 0 0 
0.39 0 0 
0.3975 0 0 
0.405 0 0 
0.4125 0 0 
0.42 0 0 
0.4275 0 0 
0.435 0 0 
0.4425 0 0 
0.45 0 0 
0.4575 0 0 
0.465 0 0 
0.4725 0 0 
0.48 0 0 
0.4875 0 0 
0.495 0 0 
0.5025 0 0 
0.51 0 0 
0.5175 0 0 
0.525 0 0 
0.5325 0 0 
0.54 0 0 
0.5475 0 0 
0.555 0 0 
0.5625 0 0 
0.57 0 0 
0.5775 0 0 
0.585 0 0 
0.5925 0 0 
0.6 0 0 
0.6075 0 0 
0.615 0 0 
0.6225 0 0 
0.63 0 0 
0.6375 0 0 
0.645 0 0 
0.6525 0 0 
0.66 0 0 
0.6675 0 0 
0.675 0 0 
0.6825 0 0 
0.69 0 0 
0.6975 0 0 
0.705 0 0 
0.7125 0 0 
0.72 0 0 
0.7275 0 0 
0.735 0 0 
0.7425 0 0 
0.75 0 0 
0.7575 0 0 
0.765 0 0 
0.7725 0 0 
0.78 0 0 
0.7875 0 0 
0.795 0 0 
0.8025 0 0 
0.81 0 0 
0.8175 0 0 
0.825 0 0 
0.8325 0 0 
0.84 0 0 
0.8475 0 0 
0.855 0 0 
0.8625 0 0 
0.87 0 0 
0.8775 0 0 
0.885 0 0 
0.8925 0 0 
0.9 0 0 
0.9075 0 0 
0.915 0 0 
0.9225 0 0 