# vtk DataFile Version 3.0
MOAB 5.1.1
ASCII
DATASET UNSTRUCTURED_GRID
POINTS 2052 double
0 0 0
0 0 -10
0 10.66875 -10
0 10.66875 0
2731.2 0 0
2731.2 0 -10
2731.2 10.66875 -10
2731.2 10.66875 0
5.334375 0 0
10.66875 0 0
16.003125 0 0
21.3375 0 0
26.671875 0 0
32.00625 0 0
37.340625 0 0
42.675 0 0
48.009375 0 0
53.34375 0 0
58.678125 0 0
64.0125 0 0
69.346875 0 0
74.68125 0 0
80.015625 0 0
85.35 0 0
90.684375 0 0
96.01875 0 0
101.353125 0 0
106.6875 0 0
112.021875 0 0
117.35625 0 0
122.690625 0 0
128.025 0 0
133.359375 0 0
138.69375 0 0
144.028125 0 0
149.3625 0 0
154.696875 0 0
160.03125 0 0
165.365625 0 0
170.7 0 0
176.034375 0 0
181.36875 0 0
186.703125 0 0
192.0375 0 0
197.371875 0 0
202.70625 0 0
208.040625 0 0
213.375 0 0
218.709375 0 0
224.04375 0 0
229.378125 0 0
234.7125 0 0
240.046875 0 0
245.38125 0 0
250.715625 0 0
256.05 0 0
261.384375 0 0
266.71875 0 0
272.053125 0 0
277.3875 0 0
282.721875 0 0
288.05625 0 0
293.390625 0 0
298.725 0 0
304.059375 0 0
309.39375 0 0
314.728125 0 0
320.0625 0 0
325.396875 0 0
330.73125 0 0
336.065625 0 0
341.4 0 0
346.734375 0 0
352.06875 0 0
357.403125 0 0
362.7375 0 0
368.071875 0 0
373.40625 0 0
378.740625 0 0
384.075 0 0
389.409375 0 0
394.74375 0 0
400.078125 0 0
405.4125 0 0
410.746875 0 0
416.08125 0 0
421.415625 0 0
426.75 0 0
432.084375 0 0
437.41875 0 0
442.753125 0 0
448.0875 0 0
453.421875 0 0
458.75625 0 0
464.090625 0 0
469.425 0 0
474.759375 0 0
480.09375 0 0
485.428125 0 0
490.7625 0 0
496.096875 0 0
501.43125 0 0
506.765625 0 0
512.1 0 0
517.434375 0 0
522.76875 0 0
528.103125 0 0
533.4375 0 0
538.771875 0 0
544.10625 0 0
549.440625 0 0
554.775 0 0
560.109375 0 0
565.44375 0 0
570.778125 0 0
576.1125 0 0
581.446875 0 0
586.78125 0 0
592.115625 0 0
597.45 0 0
602.784375 0 0
608.11875 0 0
613.453125 0 0
618.7875 0 0
624.121875 0 0
629.45625 0 0
634.790625 0 0
640.125 0 0
645.459375 0 0
650.79375 0 0
656.128125 0 0
661.4625 0 0
666.796875 0 0
672.13125 0 0
677.465625 0 0
682.8 0 0
688.134375 0 0
693.46875 0 0
698.803125 0 0
704.1375 0 0
709.471875 0 0
714.80625 0 0
720.140625 0 0
725.475 0 0
730.809375 0 0
736.14375 0 0
741.478125 0 0
746.8125 0 0
752.146875 0 0
757.48125 0 0
762.815625 0 0
768.15 0 0
773.484375 0 0
778.81875 0 0
784.153125 0 0
789.4875 0 0
794.821875 0 0
800.15625 0 0
805.490625 0 0
810.825 0 0
816.159375 0 0
821.49375 0 0
826.828125 0 0
832.1625 0 0
837.496875 0 0
842.83125 0 0
848.165625 0 0
853.5 0 0
858.834375 0 0
864.16875 0 0
869.503125 0 0
874.8375 0 0
880.171875 0 0
885.50625 0 0
890.840625 0 0
896.175 0 0
901.509375 0 0
906.84375 0 0
912.178125 0 0
917.5125 0 0
922.846875 0 0
928.18125 0 0
933.515625 0 0
938.85 0 0
944.184375 0 0
949.51875 0 0
954.853125 0 0
960.1875 0 0
965.521875 0 0
970.85625 0 0
976.190625 0 0
981.525 0 0
986.859375 0 0
992.19375 0 0
997.528125 0 0
1002.8625 0 0
1008.196875 0 0
1013.53125 0 0
1018.865625 0 0
1024.2 0 0
1029.534375 0 0
1034.86875 0 0
1040.203125 0 0
1045.5375 0 0
1050.871875 0 0
1056.20625 0 0
1061.540625 0 0
1066.875 0 0
1072.209375 0 0
1077.54375 0 0
1082.878125 0 0
1088.2125 0 0
1093.546875 0 0
1098.88125 0 0
1104.215625 0 0
1109.55 0 0
1114.884375 0 0
1120.21875 0 0
1125.553125 0 0
1130.8875 0 0
1136.221875 0 0
1141.55625 0 0
1146.890625 0 0
1152.225 0 0
1157.559375 0 0
1162.89375 0 0
1168.228125 0 0
1173.5625 0 0
1178.896875 0 0
1184.23125 0 0
1189.565625 0 0
1194.9 0 0
1200.234375 0 0
1205.56875 0 0
1210.903125 0 0
1216.2375 0 0
1221.571875 0 0
1226.90625 0 0
1232.240625 0 0
1237.575 0 0
1242.909375 0 0
1248.24375 0 0
1253.578125 0 0
1258.9125 0 0
1264.246875 0 0
1269.58125 0 0
1274.915625 0 0
1280.25 0 0
1285.584375 0 0
1290.91875 0 0
1296.253125 0 0
1301.5875 0 0
1306.921875 0 0
1312.25625 0 0
1317.590625 0 0
1322.925 0 0
1328.259375 0 0
1333.59375 0 0
1338.928125 0 0
1344.2625 0 0
1349.596875 0 0
1354.93125 0 0
1360.265625 0 0
1365.6 0 0
1370.934375 0 0
1376.26875 0 0
1381.603125 0 0
1386.9375 0 0
1392.271875 0 0
1397.60625 0 0
1402.940625 0 0
1408.275 0 0
1413.609375 0 0
1418.94375 0 0
1424.278125 0 0
1429.6125 0 0
1434.946875 0 0
1440.28125 0 0
1445.615625 0 0
1450.95 0 0
1456.284375 0 0
1461.61875 0 0
1466.953125 0 0
1472.2875 0 0
1477.621875 0 0
1482.95625 0 0
1488.290625 0 0
1493.625 0 0
1498.959375 0 0
1504.29375 0 0
1509.628125 0 0
1514.9625 0 0
1520.296875 0 0
1525.63125 0 0
1530.965625 0 0
1536.3 0 0
1541.634375 0 0
1546.96875 0 0
1552.303125 0 0
1557.6375 0 0
1562.971875 0 0
1568.30625 0 0
1573.640625 0 0
1578.975 0 0
1584.309375 0 0
1589.64375 0 0
1594.978125 0 0
1600.3125 0 0
1605.646875 0 0
1610.98125 0 0
1616.315625 0 0
1621.65 0 0
1626.984375 0 0
1632.31875 0 0
1637.653125 0 0
1642.9875 0 0
1648.321875 0 0
1653.65625 0 0
1658.990625 0 0
1664.325 0 0
1669.659375 0 0
1674.99375 0 0
1680.328125 0 0
1685.6625 0 0
1690.996875 0 0
1696.33125 0 0
1701.665625 0 0
1707 0 0
1712.334375 0 0
1717.66875 0 0
1723.003125 0 0
1728.3375 0 0
1733.671875 0 0
1739.00625 0 0
1744.340625 0 0
1749.675 0 0
1755.009375 0 0
1760.34375 0 0
1765.678125 0 0
1771.0125 0 0
1776.346875 0 0
1781.68125 0 0
1787.015625 0 0
1792.35 0 0
1797.684375 0 0
1803.01875 0 0
1808.353125 0 0
1813.6875 0 0
1819.021875 0 0
1824.35625 0 0
1829.690625 0 0
1835.025 0 0
1840.359375 0 0
1845.69375 0 0
1851.028125 0 0
1856.3625 0 0
1861.696875 0 0
1867.03125 0 0
1872.365625 0 0
1877.7 0 0
1883.034375 0 0
1888.36875 0 0
1893.703125 0 0
1899.0375 0 0
1904.371875 0 0
1909.70625 0 0
1915.040625 0 0
1920.375 0 0
1925.709375 0 0
1931.04375 0 0
1936.378125 0 0
1941.7125 0 0
1947.046875 0 0
1952.38125 0 0
1957.715625 0 0
1963.05 0 0
1968.384375 0 0
1973.71875 0 0
1979.053125 0 0
1984.3875 0 0
1989.721875 0 0
1995.05625 0 0
2000.390625 0 0
2005.725 0 0
2011.059375 0 0
2016.39375 0 0
2021.728125 0 0
2027.0625 0 0
2032.396875 0 0
2037.73125 0 0
2043.065625 0 0
2048.4 0 0
2053.734375 0 0
2059.06875 0 0
2064.403125 0 0
2069.7375 0 0
2075.071875 0 0
2080.40625 0 0
2085.740625 0 0
2091.075 0 0
2096.409375 0 0
2101.74375 0 0
2107.078125 0 0
2112.4125 0 0
2117.746875 0 0
2123.08125 0 0
2128.415625 0 0
2133.75 0 0
2139.084375 0 0
2144.41875 0 0
2149.753125 0 0
2155.0875 0 0
2160.421875 0 0
2165.75625 0 0
2171.090625 0 0
2176.425 0 0
2181.759375 0 0
2187.09375 0 0
2192.428125 0 0
2197.7625 0 0
2203.096875 0 0
2208.43125 0 0
2213.765625 0 0
2219.1 0 0
2224.434375 0 0
2229.76875 0 0
2235.103125 0 0
2240.4375 0 0
2245.771875 0 0
2251.10625 0 0
2256.440625 0 0
2261.775 0 0
2267.109375 0 0
2272.44375 0 0
2277.778125 0 0
2283.1125 0 0
2288.446875 0 0
2293.78125 0 0
2299.115625 0 0
2304.45 0 0
2309.784375 0 0
2315.11875 0 0
2320.453125 0 0
2325.7875 0 0
2331.121875 0 0
2336.45625 0 0
2341.790625 0 0
2347.125 0 0
2352.459375 0 0
2357.79375 0 0
2363.128125 0 0
2368.4625 0 0
2373.796875 0 0
2379.13125 0 0
2384.465625 0 0
2389.8 0 0
2395.134375 0 0
2400.46875 0 0
2405.803125 0 0
2411.1375 0 0
2416.471875 0 0
2421.80625 0 0
2427.140625 0 0
2432.475 0 0
2437.809375 0 0
2443.14375 0 0
2448.478125 0 0
2453.8125 0 0
2459.146875 0 0
2464.48125 0 0
2469.815625 0 0
2475.15 0 0
2480.484375 0 0
2485.81875 0 0
2491.153125 0 0
2496.4875 0 0
2501.821875 0 0
2507.15625 0 0
2512.490625 0 0
2517.825 0 0
2523.159375 0 0
2528.49375 0 0
2533.828125 0 0
2539.1625 0 0
2544.496875 0 0
2549.83125 0 0
2555.165625 0 0
2560.5 0 0
2565.834375 0 0
2571.16875 0 0
2576.503125 0 0
2581.8375 0 0
2587.171875 0 0
2592.50625 0 0
2597.840625 0 0
2603.175 0 0
2608.509375 0 0
2613.84375 0 0
2619.178125 0 0
2624.5125 0 0
2629.846875 0 0
2635.18125 0 0
2640.515625 0 0
2645.85 0 0
2651.184375 0 0
2656.51875 0 0
2661.853125 0 0
2667.1875 0 0
2672.521875 0 0
2677.85625 0 0
2683.190625 0 0
2688.525 0 0
2693.859375 0 0
2699.19375 0 0
2704.528125 0 0
2709.8625 0 0
2715.196875 0 0
2720.53125 0 0
2725.865625 0 0
5.334375 0 -10
10.66875 0 -10
16.003125 0 -10
21.3375 0 -10
26.671875 0 -10
32.00625 0 -10
37.340625 0 -10
42.675 0 -10
48.009375 0 -10
53.34375 0 -10
58.678125 0 -10
64.0125 0 -10
69.346875 0 -10
74.68125 0 -10
80.015625 0 -10
85.35 0 -10
90.684375 0 -10
96.01875 0 -10
101.353125 0 -10
106.6875 0 -10
112.021875 0 -10
117.35625 0 -10
122.690625 0 -10
128.025 0 -10
133.359375 0 -10
138.69375 0 -10
144.028125 0 -10
149.3625 0 -10
154.696875 0 -10
160.03125 0 -10
165.365625 0 -10
170.7 0 -10
176.034375 0 -10
181.36875 0 -10
186.703125 0 -10
192.0375 0 -10
197.371875 0 -10
202.70625 0 -10
208.040625 0 -10
213.375 0 -10
218.709375 0 -10
224.04375 0 -10
229.378125 0 -10
234.7125 0 -10
240.046875 0 -10
245.38125 0 -10
250.715625 0 -10
256.05 0 -10
261.384375 0 -10
266.71875 0 -10
272.053125 0 -10
277.3875 0 -10
282.721875 0 -10
288.05625 0 -10
293.390625 0 -10
298.725 0 -10
304.059375 0 -10
309.39375 0 -10
314.728125 0 -10
320.0625 0 -10
325.396875 0 -10
330.73125 0 -10
336.065625 0 -10
341.4 0 -10
346.734375 0 -10
352.06875 0 -10
357.403125 0 -10
362.7375 0 -10
368.071875 0 -10
373.40625 0 -10
378.740625 0 -10
384.075 0 -10
389.409375 0 -10
394.74375 0 -10
400.078125 0 -10
405.4125 0 -10
410.746875 0 -10
416.08125 0 -10
421.415625 0 -10
426.75 0 -10
432.084375 0 -10
437.41875 0 -10
442.753125 0 -10
448.0875 0 -10
453.421875 0 -10
458.75625 0 -10
464.090625 0 -10
469.425 0 -10
474.759375 0 -10
480.09375 0 -10
485.428125 0 -10
490.7625 0 -10
496.096875 0 -10
501.43125 0 -10
506.765625 0 -10
512.1 0 -10
517.434375 0 -10
522.76875 0 -10
528.103125 0 -10
533.4375 0 -10
538.771875 0 -10
544.10625 0 -10
549.440625 0 -10
554.775 0 -10
560.109375 0 -10
565.44375 0 -10
570.778125 0 -10
576.1125 0 -10
581.446875 0 -10
586.78125 0 -10
592.115625 0 -10
597.45 0 -10
602.784375 0 -10
608.11875 0 -10
613.453125 0 -10
618.7875 0 -10
624.121875 0 -10
629.45625 0 -10
634.790625 0 -10
640.125 0 -10
645.459375 0 -10
650.79375 0 -10
656.128125 0 -10
661.4625 0 -10
666.796875 0 -10
672.13125 0 -10
677.465625 0 -10
682.8 0 -10
688.134375 0 -10
693.46875 0 -10
698.803125 0 -10
704.1375 0 -10
709.471875 0 -10
714.80625 0 -10
720.140625 0 -10
725.475 0 -10
730.809375 0 -10
736.14375 0 -10
741.478125 0 -10
746.8125 0 -10
752.146875 0 -10
757.48125 0 -10
762.815625 0 -10
768.15 0 -10
773.484375 0 -10
778.81875 0 -10
[...]
POINT_DATA 2052
SCALARS GLOBAL_ID int 1
LOOKUP_TABLE default
0 
1 
2 
3 
4 
5 
6 
7 
8 
9 
10 
11 
12 
13 
14 
15 
16 
17 
18 
19 
20 
21 
22 
23 
24 
25 
26 
27 
28 
29 
30 
31 
32 
33 
34 
35 
36 
37 
38 
39 
40 
41 
42 
43 
44 
45 
46 
47 
48 
49 
50 
51 
52 
53 
54 
55 
56 
57 
58 
59 
60 
61 
62 
63 
64 
65 
66 
67 
68 
69 
70 
71 
72 
73 
74 
75 
76 
77 
78 
79 
80 
81 
82 
83 
84 
85 
86 
87 
88 
89 
90 
91 
92 
93 
94 
95 
96 
97 
98 
99 
100 
101 
102 
103 
104 
105 
106 
107 
108 
109 
110 
111 
112 
113 
114 
115 
116 
117 
118 
119 
120 
121 
122 
123 
124 
125 
126 
127 
128 
129 
130 
131 
132 
133 
134 
135 
136 
137 
138 
139 
140 
141 
142 
143 
144 
145 
146 
147 
148 
149 
150 
151 
152 
153 
154 
155 
156 
157 
158 
159 
160 
161 
162 
163 
164 
165 
166 
167 
168 
169 
170 
171 
172 
173 
174 
175 
176 
177 
178 
179 
180 
181 
182 
183 
184 
185 
186 
187 
188 
189 
190 
191 
192 
193 
194 
195 
196 
197 
198 
199 
200 
201 
202 
203 
204 
205 
206 
207 
208 
209 
210 
211 
212 
213 
214 
215 
216 
217 
218 
219 
220 
221 
222 
223 
224 
225 
226 
227 
228 
229 
230 
231 
232 
233 
234 
235 
236 
237 
238 
239 
240 
241 
242 
243 
244 
245 
246 
247 
248 
249 
250 
251 
252 
253 
254 
255 
256 
257 
258 
259 
260 
261 
262 
263 
264 
265 
266 
267 
268 
269 
270 
271 
272 
273 
274 
275 
276 
277 
278 
279 
280 
281 
282 
283 
284 
285 
286 
287 
288 
289 
290 
291 
292 
293 
294 
295 
296 
297 
298 
299 
300 
301 
302 
303 
304 
305 
306 
307 
308 
309 
310 
311 
312 
313 
314 
315 
316 
317 
318 
319 
320 
321 
322 
323 
324 
325 
326 
327 
328 
329 
330 
331 
332 
333 
334 
335 
336 
337 
338 
339 
340 
341 
342 
343 
344 
345 
346 
347 
348 
349 
350 
351 
352 
353 
354 
355 
356 
357 
358 
359 
360 
361 
362 
363 
364 
365 
366 
367 
368 
369 
370 
371 
372 
373 
374 
375 
376 
377 
378 
379 
380 
381 
382 
383 
384 
385 
386 
387 
388 
389 
390 
391 
392 
393 
394 
395 
396 
397 
398 
399 
400 
401 
402 
403 
404 
405 
406 
407 
408 
409 
410 
411 
412 
413 
414 
415 
416 
417 
418 
419 
420 
421 
422 
423 
424 
425 
426 
427 
428 
429 
430 
431 
432 
433 
434 
435 
436 
437 
438 
439 
440 
441 
442 
443 
444 
445 
446 
447 
448 
449 
450 
451 
452 
453 
454 
455 
456 
457 
458 
459 
460 
461 
462 
463 
464 
465 
466 
467 
468 
469 
470 
471 
472 
473 
474 
475 
476 
477 
478 
479 
480 
481 
482 
483 
484 
485 
486 
487 
488 
489 
490 
491 
492 
493 
494 
495 
496 
497 
498 
499 
500 
501 
502 
503 
504 
505 
506 
507 
508 
509 
510 
511 
512 
513 
514 
515 
516 
517 
518 
519 
520 
521 
522 
523 
524 
525 
526 
527 
528 
529 
530 
531 
532 
533 
534 
535 
536 
537 
538 
539 
540 
541 
542 
543 
544 
545 
546 
547 
548 
549 
550 
551 
552 
553 
554 
555 
556 
557 
558 
559 
560 
561 
562 
563 
564 
565 
566 
567 
568 
569 
570 
571 
572 
573 
574 
575 
576 
577 
578 
579 
580 
581 
582 
583 
584 
585 
586 
587 
588 
589 
590 
591 
592 
593 
594 
595 
596 
597 
598 
599 
600 
601 
602 
603 
604 
605 
606 
607 
608 
609 
610 
611 
612 
613 
614 
615 
616 
617 
618 
619 
620 
621 
622 
623 
624 
625 
626 
627 
628 
629 
630 
631 
632 
633 
634 
635 
636 
637 
638 
639 
640 
641 
642 
643 
644 
645 
646 
647 
648 
649 
650 
651 
652 
653 
654 
655 
656 
657 
658 
659 
660 
661 
662 
663 
664 
665 
666 
667 
668 
669 
670 
671 
672 
673 
674 
675 
676 
677 
678 
679 
680 
681 
682 
683 
684 
685 
686 
687 
688 
689 
690 
691 
692 
693 
694 
695 
696 
697 
698 
699 
700 
701 
702 
703 
704 
705 
706 
707 
708 
709 
710 
711 
712 
713 
714 
715 
716 
717 
718 
719 
720 
721 
722 
723 
724 
725 
726 
727 
728 
729 
730 
731 
732 
733 
734 
735 
736 
737 
738 
739 
740 
741 
742 
743 
744 
745 
746 
747 
748 
749 
750 
751 
752 
753 
754 
755 
756 
757 
758 
759 
760 
761 
762 
763 
764 
765 
766 
767 
768 
769 
770 
771 
772 
773 
774 
775 
776 
777 
778 
779 
780 
781 
782 
783 
784 
785 
786 
787 
788 
789 
790 
791 
792 
793 
794 
795 
796 
797 
798 
799 
800 
801 
802 
803 
804 
805 
806 
807 
808 
809 
810 
811 
812 
813 
814 
815 
816 
817 
818 
819 
820 
821 
822 
823 
824 
825 
826 
827 
828 
829 
830 
831 
832 
833 
834 
835 
836 
837 
838 
839 
840 
841 
842 
843 
844 
845 
846 
847 
848 
849 
850 
851 
852 
853 
854 
855 
856 
857 
858 
859 
860 
861 
862 
863 
864 
865 
866 
867 
868 
869 
870 
871 
872 
873 
874 
875 
876 
877 
878 
879 
880 
881 
882 
883 
884 
885 
886 
887 
888 
889 
890 
891 
892 
893 
894 
895 
896 
897 
898 
899 
900 
901 
902 
903 
904 
905 
906 
907 
908 
909 
910 
911 
912 
913 
914 
915 
916 
917 
918 
919 
920 
921 
922 
923 
924 
925 
926 
927 
928 
929 
930 
931 
932 
933 
934 
935 
936 
937 
938 
939 
940 
941 
942 
943 
944 
945 
946 
947 
948 
949 
950 
951 
952 
953 
954 
955 
956 
957 
958 
959 
960 
961 
962 
963 
964 
965 
966 
967 
968 
969 
970 
971 
972 
973 
974 
975 
976 
977 
978 
979 
980 
981 
982 
983 
984 
985 
986 
987 
988 
989 
990 
991 
992 
993 
994 
995 
996 
997 
998 
999 
1000 
1001 
1002 
1003 
1004 
1005 
1006 
1007 
1008 
1009 
1010 
1011 
1012 
1013 
1014 
1015 
1016 
1017 
1018 
1019 
1020 
1021 
1022 
1023 
1024 
1025 
1026 
1027 
1028 
1029 
1030 
1031 
1032 
1033 
1034 
1035 
1036 
1037 
1038 
1039 
1040 
1041 
1042 
1043 
1044 
1045 
1046 
1047 
1048 
1049 
1050 
1051 
1052 
1053 
1054 
1055 
1056 
1057 
1058 
1059 
1060 
1061 
1062 
1063 
1064 
1065 
1066 
1067 
1068 
1069 
1070 
1071 
1072 
1073 
1074 
1075 
1076 
1077 
1078 
1079 
1080 
1081 
1082 
1083 
1084 
1085 
1086 
1087 
1088 
1089 
1090 
1091 
1092 
1093 
1094 
1095 
1096 
1097 
1098 
1099 
1100 
1101 
1102 
1103 
1104 
1105 
1106 
1107 
1108 
1109 
1110 
1111 
1112 
1113 
1114 
1115 
1116 
1117 
1118 
1119 
1120 
1121 
1122 
1123 
1124 
1125 
1126 
1127 
1128 
1129 
1130 
1131 
1132 
1133 
1134 
1135 
1136 
1137 
1138 
1139 
1140 
1141 
1142 
1143 
1144 
1145 
1146 
1147 
1148 
1149 
1150 
1151 
1152 
1153 
1154 
1155 
1156 
1157 
1158 
1159 
1160 
1161 
1162 
1163 
1164 
1165 
1166 
1167 
1168 
1169 
1170 
1171 
1172 
1173 
1174 
1175 
1176 
1177 
1178 
1179 
1180 
1181 
1182 
1183 
1184 
1185 
1186 
1187 
1188 
1189 
1190 
1191 
1192 
1193 
1194 
1195 
1196 
1197 
1198 
1199 
1200 
1201 
1202 
1203 
1204 
1205 
1206 
1207 
1208 
1209 
1210 
1211 
1212 
1213 
1214 
1215 
1216 
1217 
1218 
1219 
1220 
1221 
1222 
1223 
1224 
1225 
1226 
1227 
1228 
1229 
1230 
1231 
1232 
1233 
1234 
1235 
1236 
1237 
1238 
1239 
1240 
1241 
1242 
1243 
1244 
1245 
1246 
1247 
1248 
1249 
1250 
1251 
1252 
1253 
1254 
1255 
1256 
1257 
1258 
1259 
1260 
1261 
1262 
1263 
1264 
1265 
1266 
1267 
1268 
1269 
1270 
1271 
1272 
1273 
1274 
1275 
1276 
1277 
1278 
1279 
1280 
1281 
1282 
1283 
1284 
1285 
1286 
1287 
1288 
1289 
1290 
1291 
1292 
1293 
1294 
1295 
1296 
1297 
1298 
1299 
1300 
1301 
1302 
1303 
1304 
1305 
1306 
1307 
1308 
1309 
1310 
1311 
1312 
1313 
1314 
1315 
1316 
1317 
1318 
1319 
1320 
1321 
1322 
1323 
1324 
1325 
1326 
1327 
1328 
1329 
1330 
1331 
1332 
1333 
1334 
1335 
1336 
1337 
1338 
1339 
1340 
1341 
1342 
1343 
1344 
1345 
1346 
1347 
1348 
1349 
1350 
1351 
1352 
1353 
1354 
1355 
1356 
1357 
1358 
1359 
1360 
1361 
1362 
1363 
1364 
1365 
1366 
1367 
1368 
1369 
1370 
1371 
1372 
1373 
1374 
1375 
1376 
1377 
1378 
1379 
1380 
1381 
1382 
1383 
1384 
1385 
1386 
1387 
1388 
1389 
1390 
1391 
1392 
1393 
1394 
1395 
1396 
1397 
1398 
1399 
1400 
1401 
1402 
1403 
1404 
1405 
1406 
1407 
1408 
1409 
1410 
1411 
1412 
1413 
1414 
1415 
1416 
1417 
1418 
1419 
1420 
1421 
1422 
1423 
1424 
1425 
1426 
1427 
1428 
1429 
1430 
1431 
1432 
1433 
1434 
1435 
1436 
1437 
1438 
1439 
1440 
1441 
1442 
1443 
1444 
1445 
1446 
1447 
1448 
1449 
1450 
1451 
1452 
1453 
1454 
1455 
1456 
1457 
1458 
1459 
1460 
1461 
1462 
1463 
1464 
1465 
1466 
1467 
1468 
1469 
1470 
1471 
1472 
1473 
1474 
1475 
1476 
1477 
1478 
1479 
1480 
1481 
1482 
1483 
1484 
1485 
1486 
1487 
1488 
1489 
1490 
1491 
1492 
1493 
1494 
1495 
1496 
1497 
1498 
1499 
1500 
1501 
1502 
1503 
1504 
1505 
1506 
1507 
1508 
1509 
1510 
1511 
1512 
1513 
1514 
1515 
1516 
1517 
1518 
1519 
1520 
1521 
1522 
1523 
1524 
1525 
1526 
1527 
1528 
1529 
1530 
1531 
1532 
1533 
1534 
1535 
1536 
1537 
1538 
1539 
1540 
1541 
1542 
1543 
1544 
1545 
1546 
1547 
1548 
1549 
1550 
1551 
1552 
1553 
1554 
1555 
1556 
1557 
1558 
1559 
1560 
1561 
1562 
1563 
1564 
1565 
1566 
1567 
1568 
1569 
1570 
1571 
1572 
1573 
1574 
1575 
1576 
1577 
1578 
1579 
1580 
1581 
1582 
1583 
1584 
1585 
1586 
1587 
1588 
1589 
1590 
1591 
1592 
1593 
1594 
1595 
1596 
1597 
1598 
1599 
1600 
1601 
1602 
1603 
1604 
1605 
1606 
1607 
1608 
1609 
1610 
1611 
1612 
1613 
1614 
1615 
1616 
1617 
1618 
1619 
1620 
1621 
1622 
1623 
1624 
1625 
1626 
1627 
1628 
1629 
1630 
1631 
1632 
1633 
1634 
1635 
1636 
1637 
1638 
1639 
1640 
1641 
1642 
1643 
1644 
1645 
1646 
1647 
1648 
1649 
1650 
1651 
1652 
1653 
1654 
1655 
1656 
1657 
1658 
1659 
1660 
1661 
1662 
1663 
1664 
1665 
1666 
1667 
1668 
1669 
1670 
1671 
1672 
1673 
1674 
1675 
1676 
1677 
1678 
1679 
1680 
1681 
1682 
1683 
1684 
1685 
1686 
1687 
1688 
1689 
1690 
1691 
1692 
1693 
1694 
1695 
1696 
1697 
1698 
1699 
1700 
1701 
1702 
1703 
1704 
1705 
1706 
1707 
1708 
1709 
1710 
1711 
1712 
1713 
1714 
1715 
1716 
1717 
1718 
1719 
1720 
1721 
1722 
1723 
1724 
1725 
1726 
1727 
1728 
1729 
1730 
1731 
1732 
1733 
1734 
1735 
1736 
1737 
1738 
1739 
1740 
1741 
1742 
1743 
1744 
1745 
1746 
1747 
1748 
1749 
1750 
1751 
1752 
1753 
1754 
1755 
1756 
1757 
1758 
1759 
1760 
1761 
1762 
1763 
1764 
1765 
1766 
1767 
1768 
1769 
1770 
1771 
1772 
1773 
1774 
1775 
1776 
1777 
1778 
1779 
1780 
1781 
1782 
1783 
1784 
1785 
1786 
1787 
1788 
1789 
1790 
1791 
1792 
1793 
1794 
1795 
1796 
1797 
1798 
1799 
1800 
1801 
1802 
1803 
1804 
1805 
1806 
1807 
1808 
1809 
1810 
1811 
1812 
1813 
1814 
1815 
1816 
1817 
1818 
1819 
1820 
1821 
1822 
1823 
1824 
1825 
1826 
1827 
1828 
1829 
1830 
1831 
1832 
1833 
1834 
1835 
1836 
1837 
1838 
1839 
1840 
1841 
1842 
1843 
1844 
1845 
1846 
1847 
1848 
1849 
1850 
1851 
1852 
1853 
1854 
1855 
1856 
1857 
1858 
1859 
1860 
1861 
1862 
1863 
1864 
1865 
1866 
1867 
1868 
1869 
1870 
1871 
1872 
1873 
1874 
1875 
1876 
1877 
1878 
1879 
1880 
1881 
1882 
1883 
1884 
1885 
1886 
1887 
1888 
1889 
1890 
1891 
1892 
1893 
1894 
1895 
1896 
1897 
1898 
1899 
1900 
1901 
1902 
1903 
1904 
1905 
1906 
1907 
1908 
1909 
1910 
1911 
1912 
1913 
1914 
1915 
1916 
1917 
1918 
1919 
1920 
1921 
1922 
1923 
1924 
1925 
1926 
1927 
1928 
1929 
1930 
1931 
1932 
1933 
1934 
1935 
1936 
1937 
1938 
1939 
1940 
1941 
1942 
1943 
1944 
1945 
1946 
1947 
1948 
1949 
1950 
1951 
1952 
1953 
1954 
1955 
1956 
1957 
1958 
1959 
1960 
1961 
1962 
1963 
1964 
1965 
1966 
1967 
1968 
1969 
1970 
1971 
1972 
1973 
1974 
1975 
1976 
1977 
1978 
1979 
1980 
1981 
1982 
1983 
1984 
1985 
1986 
1987 
1988 
1989 
1990 
1991 
1992 
1993 
1994 
1995 
1996 
1997 
1998 
1999 
2000 
2001 
2002 
2003 
2004 
2005 
2006 
2007 
2008 
2009 
2010 
2011 
2012 
2013 
2014 
2015 
2016 
2017 
2018 
2019 
2020 
2021 
2022 
2023 
2024 
2025 
2026 
2027 
2028 
2029 
2030 
2031 
2032 
2033 
2034 
2035 
2036 
2037 
2038 
2039 
2040 
2041 
2042 
2043 
2044 
2045 
2046 
2047 
2048 
2049 
2050 
2051 
VECTORS NODES double
0 0 0 
0 0 -10 
0 10.66875 -10 
0 10.66875 0 
2731.2 0 0 
2731.2 0 -10 
2731.2 10.66875 -10 
2731.2 10.66875 0 
5.334375 0 0 
10.66875 0 0 
16.003125 0 0 
21.3375 0 0 
26.671875 0 0 
32.00625 0 0 
37.340625 0 0 
42.675 0 0 
48.009375 0 0 
53.34375 0 0 
58.678125 0 0 
64.0125 0 0 
69.346875 0 0 
74.68125 0 0 
80.015625 0 0 
85.35 0 0 
90.684375 0 0 
96.01875 0 0 
101.353125 0 0 
106.6875 0 0 
112.021875 0 0 
117.35625 0 0 
122.690625 0 0 
128.025 0 0 
133.359375 0 0 
138.69375 0 0 
144.028125 0 0 
149.3625 0 0 
154.696875 0 0 
160.03125 0 0 
165.365625 0 0 
170.7 0 0 
176.034375 0 0 
181.36875 0 0 
186.703125 0 0 
192.0375 0 0 
197.371875 0 0 
202.70625 0 0 
208.040625 0 0 
213.375 0 0 
218.709375 0 0 
224.04375 0 0 
229.378125 0 0 
234.7125 0 0 
240.046875 0 0 
245.38125 0 0 
250.715625 0 0 
256.05 0 0 
261.384375 0 0 
266.71875 0 0 
272.053125 0 0 
277.3875 0 0 
282.721875 0 0 
288.05625 0 0 
293.390625 0 0 
298.725 0 0 
304.059375 0 0 
309.39375 0 0 
314.728125 0 0 
320.0625 0 0 
325.396875 0 0 
330.73125 0 0 
336.065625 0 0 
341.4 0 0 
346.734375 0 0 
352.06875 0 0 
357.403125 0 0 
362.7375 0 0 
368.071875 0 0 
373.40625 0 0 
378.740625 0 0 
384.075 0 0 
389.409375 0 0 
394.74375 0 0 
400.078125 0 0 
405.4125 0 0 
410.746875 0 0 
416.08125 0 0 
421.415625 0 0 
426.75 0 0 
432.084375 0 0 
437.41875 0 0 
442.753125 0 0 
448.0875 0 0 
453.421875 0 0 
458.75625 0 0 
464.090625 0 0 
469.425 0 0 
474.759375 0 0 
480.09375 0 0 
485.428125 0 0 
490.7625 0 0 
496.096875 0 0 
501.43125 0 0 
506.765625 0 0 
512.1 0 0 
517.434375 0 0 
522.76875 0 0 
528.103125 0 0 
533.4375 0 0 
538.771875 0 0 
544.10625 0 0 
549.440625 0 0 
554.775 0 0 
560.109375 0 0 
565.44375 0 0 
570.778125 0 0 
576.1125 0 0 
581.446875 0 0 
586.78125 0 0 
592.115625 0 0 
597.45 0 0 
602.784375 0 0 
608.11875 0 0 
613.453125 0 0 
618.7875 0 0 
624.121875 0 0 
629.45625 0 0 
634.790625 0 0 
640.125 0 0 
645.459375 0 0 
650.79375 0 0 
656.128125 0 0 
661.4625 0 0 
666.796875 0 0 
672.13125 0 0 
677.465625 0 0 
682.8 0 0 
688.134375 0 0 
693.46875 0 0 
698.803125 0 0 
704.1375 0 0 
709.471875 0 0 
714.80625 0 0 
720.140625 0 0 
725.475 0 0 
730.809375 0 0 
736.14375 0 0 
741.478125 0 0 
746.8125 0 0 
752.146875 0 0 
757.48125 0 0 
762.815625 0 0 
768.15 0 0 
773.484375 0 0 
778.81875 0 0 
784.153125 0 0 
789.4875 0 0 
794.821875 0 0 
800.15625 0 0 
805.490625 0 0 
810.825 0 0 
816.159375 0 0 
821.49375 0 0 
826.828125 0 0 
832.1625 0 0 
837.496875 0 0 
842.83125 0 0 
848.165625 0 0 
853.5 0 0 
858.834375 0 0 
864.16875 0 0 
869.503125 0 0 
874.8375 0 0 
880.171875 0 0 
885.50625 0 0 
890.840625 0 0 
896.175 0 0 
901.509375 0 0 
906.84375 0 0 
912.178125 0 0 
917.5125 0 0 
922.846875 0 0 
928.18125 0 0 
933.515625 0 0 
938.85 0 0 
944.184375 0 0 
949.51875 0 0 
954.853125 0 0 
960.1875 0 0 
965.521875 0 0 
970.85625 0 0 
976.190625 0 0 
981.525 0 0 
986.859375 0 0 
992.19375 0 0 
997.528125 0 0 
1002.8625 0 0 
1008.196875 0 0 
1013.53125 0 0 
1018.865625 0 0 
1024.2 0 0 
1029.534375 0 0 
1034.86875 0 0 
1040.203125 0 0 
1045.5375 0 0 
1050.871875 0 0 
1056.20625 0 0 
1061.540625 0 0 
1066.875 0 0 
1072.209375 0 0 
1077.54375 0 0 
1082.878125 0 0 
1088.2125 0 0 
1093.546875 0 0 
1098.88125 0 0 
1104.215625 0 0 
1109.55 0 0 
1114.884375 0 0 
1120.21875 0 0 
1125.553125 0 0 
1130.8875 0 0 
1136.221875 0 0 
1141.55625 0 0 
1146.890625 0 0 
1152.225 0 0 
1157.559375 0 0 
1162.89375 0 0 
1168.228125 0 0 
1173.5625 0 0 
1178.896875 0 0 
1184.23125 0 0 
1189.565625 0 0 
1194.9 0 0 
1200.234375 0 0 
1205.56875 0 0 
1210.903125 0 0 
1216.2375 0 0 
1221.571875 0 0 
1226.90625 0 0 
1232.240625 0 0 
1237.575 0 0 
1242.909375 0 0 
1248.24375 0 0 
1253.578125 0 0 
1258.9125 0 0 
1264.246875 0 0 
1269.58125 0 0 
1274.915625 0 0 
1280.25 0 0 
1285.584375 0 0 
1290.91875 0 0 
1296.253125 0 0 
1301.5875 0 0 
1306.921875 0 0 
1312.25625 0 0 
1317.590625 0 0 
1322.925 0 0 
1328.259375 0 0 
1333.59375 0 0 
1338.928125 0 0 
1344.2625 0 0 
1349.596875 0 0 
1354.93125 0 0 
1360.265625 0 0 
1365.6 0 0 
1370.934375 0 0 
1376.26875 0 0 
1381.603125 0 0 
1386.9375 0 0 
1392.271875 0 0 
1397.60625 0 0 
1402.940625 0 0 
1408.275 0 0 
1413.609375 0 0 
1418.94375 0 0 
1424.278125 0 0 
1429.6125 0 0 
1434.946875 0 0 
1440.28125 0 0 
1445.615625 0 0 
1450.95 0 0 
1456.284375 0 0 
1461.61875 0 0 
1466.953125 0 0 
1472.2875 0 0 
1477.621875 0 0 
1482.95625 0 0 
1488.290625 0 0 
1493.625 0 0 
1498.959375 0 0 
1504.29375 0 0 
1509.628125 0 0 
1514.9625 0 0 
1520.296875 0 0 
1525.63125 0 0 
1530.965625 0 0 
1536.3 0 0 
1541.634375 0 0 
1546.96875 0 0 
1552.303125 0 0 
1557.6375 0 0 
1562.971875 0 0 
1568.30625 0 0 
1573.640625 0 0 
1578.975 0 0 
1584.309375 0 0 
1589.64375 0 0 
1594.978125 0 0 
1600.3125 0 0 
1605.646875 0 0 
1610.98125 0 0 
1616.315625 0 0 
1621.65 0 0 
1626.984375 0 0 
1632.31875 0 0 
1637.653125 0 0 
1642.9875 0 0 
1648.321875 0 0 
1653.65625 0 0 
1658.990625 0 0 
1664.325 0 0 
1669.659375 0 0 
1674.99375 0 0 
1680.328125 0 0 
1685.6625 0 0 
1690.996875 0 0 
1696.33125 0 0 
1701.665625 0 0 
1707 0 0 
1712.334375 0 0 
1717.66875 0 0 
1723.003125 0 0 
1728.3375 0 0 
1733.671875 0 0 
1739.00625 0 0 
1744.340625 0 0 
1749.675 0 0 
1755.009375 0 0 
1760.34375 0 0 
1765.678125 0 0 
1771.0125 0 0 
1776.346875 0 0 
1781.68125 0 0 
1787.015625 0 0 
1792.35 0 0 
1797.684375 0 0 
1803.01875 0 0 
1808.353125 0 0 
1813.6875 0 0 
1819.021875 0 0 
1824.35625 0 0 
1829.690625 0 0 
1835.025 0 0 
1840.359375 0 0 
1845.69375 0 0 
1851.028125 0 0 
1856.3625 0 0 
1861.696875 0 0 
1867.03125 0 0 
1872.365625 0 0 
1877.7 0 0 
1883.034375 0 0 
1888.36875 0 0 
1893.703125 0 0 
1899.0375 0 0 
1904.371875 0 0 
1909.70625 0 0 
1915.040625 0 0 
1920.375 0 0 
1925.709375 0 0 
1931.04375 0 0 
1936.378125 0 0 
1941.7125 0 0 
1947.046875 0 0 
1952.38125 0 0 
1957.715625 0 0 
1963.05 0 0 
1968.384375 0 0 
1973.71875 0 0 
1979.053125 0 0 
1984.3875 0 0 
1989.721875 0 0 
1995.05625 0 0 
2000.390625 0 0 
2005.725 0 0 
2011.059375 0 0 
2016.39375 0 0 
2021.728125 0 0 
2027.0625 0 0 
2032.396875 0 0 
2037.73125 0 0 
2043.065625 0 0 
2048.4 0 0 
2053.734375 0 0 
2059.06875 0 0 
2064.403125 0 0 
2069.7375 0 0 
2075.071875 0 0 
2080.40625 0 0 
2085.740625 0 0 
2091.075 0 0 
2096.409375 0 0 
2101.74375 0 0 
2107.078125 0 0 
2112.4125 0 0 
2117.746875 0 0 
2123.08125 0 0 
2128.415625 0 0 
2133.75 0 0 
2139.084375 0 0 
2144.41875 0 0 
2149.753125 0 0 
2155.0875 0 0 
2160.421875 0 0 
2165.75625 0 0 
2171.090625 0 0 
2176.425 0 0 
2181.759375 0 0 
2187.09375 0 0 
2192.428125 0 0 
2197.7625 0 0 
2203.096875 0 0 
2208.43125 0 0 
2213.765625 0 0 
2219.1 0 0 
2224.434375 0 0 
2229.76875 0 0 
2235.103125 0 0 
2240.4375 0 0 
2245.771875 0 0 
2251.10625 0 0 
2256.440625 0 0 
2261.775 0 0 
2267.109375 0 0 
2272.44375 0 0 
2277.778125 0 0 
2283.1125 0 0 
2288.446875 0 0 
2293.78125 0 0 
2299.115625 0 0 
2304.45 0 0 
2309.784375 0 0 
2315.11875 0 0 
2320.453125 0 0 
2325.7875 0 0 
2331.121875 0 0 
2336.45625 0 0 
2341.790625 0 0 
2347.125 0 0 
2352.459375 0 0 
2357.79375 0 0 
2363.128125 0 0 
2368.4625 0 0 
2373.796875 0 0 
2379.13125 0 0 
2384.465625 0 0 
2389.8 0 0 
2395.134375 0 0 
2400.46875 0 0 
2405.803125 0 0 
2411.1375 0 0 
2416.471875 0 0 
2421.80625 0 0 
2427.140625 0 0 
2432.475 0 0 
2437.809375 0 0 
2443.14375 0 0 
2448.478125 0 0 
2453.8125 0 0 
2459.146875 0 0 
2464.48125 0 0 
2469.815625 0 0 
2475.15 0 0 
2480.484375 0 0 
2485.81875 0 0 
2491.153125 0 0 
2496.4875 0 0 
2501.821875 0 0 
2507.15625 0 0 
2512.490625 0 0 
2517.825 0 0 
2523.159375 0 0 
2528.49375 0 0 
2533.828125 0 0 
2539.1625 0 0 
2544.496875 0 0 
2549.83125 0 0 
2555.165625 0 0 
2560.5 0 0 
2565.834375 0 0 
2571.16875 0 0 
2576.503125 0 0 
2581.8375 0 0 
2587.171875 0 0 
2592.50625 0 0 
2597.840625 0 0 
2603.175 0 0 
2608.509375 0 0 
2613.84375 0 0 
2619.178125 0 0 
2624.5125 0 0 
2629.846875 0 0 
2635.18125 0 0 
2640.515625 0 0 
2645.85 0 0 
2651.184375 0 0 
2656.51875 0 0 
2661.853125 0 0 
2667.1875 0 0 
2672.521875 0 0 
2677.85625 0 0 
2683.190625 0 0 
2688.525 0 0 
2693.859375 0 0 
2699.19375 0 0 
2704.528125 0 0 
2709.8625 0 0 
2715.196875 0 0 
2720.53125 0 0 
2725.865625 0 0 
5.334375 0 -10 
10.66875 0 -10 
16.003125 0 -10 
21.3375 0 -10 
26.671875 0 -10 
32.00625 0 -10 
37.340625 0 -10 
42.675 0 -10 
48.009375 0 -10 
53.34375 0 -10 
58.678125 0 -10 
64.0125 0 -10 
69.346875 0 -10 
74.68125 0 -10 
80.015625 0 -10 
85.35 0 -10 
90.684375 0 -10 
96.01875 0 -10 
101.353125 0 -10 
106.6875 0 -10 
112.021875 0 -10 
117.35625 0 -10 
122.690625 0 -10 
128.025 0 -10 
133.359375 0 -10 
138.69375 0 -10 
144.028125 0 -10 
149.3625 0 -10 
154.696875 0 -10 
160.03125 0 -10 
165.365625 0 -10 
170.7 0 -10 
176.034375 0 -10 
181.36875 0 -10 
186.703125 0 -10 
192.0375 0 -10 
197.371875 0 -10 