# vtk DataFile Version 3.0
MOAB 5.1.1
ASCII
DATASET UNSTRUCTURED_GRID
POINTS 36 double
0 0 0
0 0 1
0 1 1
0 1 0
50 0 0
50 0 1
50 1 1
50 1 0
6.25 0 0
12.5 0 0
18.75 0 0
25 0 0
31.25 0 0
37.5 0 0
43.75 0 0
6.25 0 1
12.5 0 1
18.75 0 1
25 0 1
31.25 0 1
37.5 0 1
43.75 0 1
6.25 1 1
12.5 1 1
18.75 1 1
25 1 1
31.25 1 1
37.5 1 1
43.75 1 1
6.25 1 0
12.5 1 0
18.75 1 0
25 1 0
31.25 1 0
37.5 1 0
43.75 1 0
CELLS 8 72
8 2 1 0 3 22 15 8 29
8 22 15 8 29 23 16 9 30
8 23 16 9 30 24 17 10 31
8 24 17 10 31 25 18 11 32
8 25 18 11 32 26 19 12 33
8 26 19 12 33 27 20 13 34
8 27 20 13 34 28 21 14 35
8 28 21 14 35 6 5 4 7
CELL_TYPES 8
12
12
12
12
12
12
12
12
POINT_DATA 36
SCALARS GLOBAL_ID int 1
LOOKUP_TABLE default
0 
1 
2 
3 
4 
5 
6 
7 
8 
9 
10 
11 
12 
13 
14 
15 
16 
17 
18 
19 
20 
21 
22 
23 
24 
25 
26 
27 
28 
29 
30 
31 
32 
33 
34 
35 
VECTORS NODES double
0 0 0 
0 0 1 
0 1 1 
0 1 0 
50 0 0 
50 0 1 
50 1 1 
50 1 0 
6.25 0 0 
12.5 0 0 
18.75 0 0 
25 0 0 
31.25 0 0 
37.5 0 0 
43.75 0 0 
6.25 0 1 
12.5 0 1 
18.75 0 1 
25 0 1 
31.25 0 1 
37.5 0 1 
43.75 0 1 
6.25 1 1 
12.5 1 1 
18.75 1 1 
25 1 1 
31.25 1 1 
37.5 1 1 
43.75 1 1 
6.25 1 0 
12.5 1 0 
18.75 1 0 
25 1 0 
31.25 1 0 
37.5 1 0 
43.75 1 0 
VECTORS centroid_nodes double
0 0 0 
0 0 1 
0 1 1 
0 1 0 
50 0 0 
50 0 1 
50 1 1 
50 1 0 
6.25 0 0 
12.5 0 0 
18.75 0 0 
25 0 0 
31.25 0 0 
37.5 0 0 
43.75 0 0 
6.25 0 1 
12.5 0 1 
18.75 0 1 
25 0 1 
31.25 0 1 
37.5 0 1 
43.75 0 1 
6.25 1 1 
12.5 1 1 
18.75 1 1 
25 1 1 
31.25 1 1 
37.5 1 1 
43.75 1 1 
6.25 1 0 
12.5 1 0 
18.75 1 0 
25 1 0 
31.25 1 0 
37.5 1 0 
43.75 1 0 
CELL_DATA 8
SCALARS GLOBAL_ID int 1
LOOKUP_TABLE default
0 
1 
2 
3 
4 
5 
6 
7 
VECTORS centroid_volumes double
3.125 0.5 0.5 
9.375 0.5 0.5 
15.625 0.5 0.5 
21.875 0.5 0.5 
28.125 0.5 0.5 
34.375 0.5 0.5 
40.625 0.5 0.5 
46.875 0.5 0.5 
SCALARS flux_grav_volumes double 1
LOOKUP_TABLE default
0 
0 
0 
0 
0 
0 
0 
0 
SCALARS flux_o_volumes double 1
LOOKUP_TABLE default
0 
0 
0 
0 
0 
0 
0 
0 
SCALARS flux_volumes double 1
LOOKUP_TABLE default
0 
0 
0 
0 
0 
0 
0 
0 
SCALARS flux_volumes_test double 1
LOOKUP_TABLE default
0 
0 
0 
0 
0 
0 
0 
0 
SCALARS flux_w_volumes double 1
LOOKUP_TABLE default
0 
0 
0 
0 
0 
0 
0 
0 
SCALARS fw_vol double 1
LOOKUP_TABLE default
0 
0 
0 
0 
0 
0 
0 
0 
SCALARS gama double 1
LOOKUP_TABLE default
10000 
10000 
10000 
10000 
10000 
10000 
10000 
10000 
VECTORS hs double
6.25 1 1 
6.25 1 1 
6.25 1 1 
6.25 1 1 
6.25 1 1 
6.25 1 1 
6.25 1 1 
6.25 1 1 
SCALARS kro double 1
LOOKUP_TABLE default
0 
0 
0 
0 
0 
0 
0 
0 
SCALARS krw double 1
LOOKUP_TABLE default
0 
0 
0 
0 
0 
0 
0 
0 
SCALARS lambda_o double 1
LOOKUP_TABLE default
0 
0 
0 
0 
0 
0 
0 
0 
SCALARS lambda_t double 1
LOOKUP_TABLE default
0 
0 
0 
0 
0 
0 
0 
0 
SCALARS lambda_w double 1
LOOKUP_TABLE default
0 
0 
0 
0 
0 
0 
0 
0 
SCALARS mass_oil_production double 1
LOOKUP_TABLE default
0 
0 
0 
0 
0 
0 
0 
0 
SCALARS mass_water_production double 1
LOOKUP_TABLE default
0 
0 
0 
0 
0 
0 
0 
0 
TENSORS permeability double
9.869233e-15 0 0 0 9.869233e-15 0 0 0 9.869233e-15 
9.869233e-15 0 0 0 9.869233e-15 0 0 0 9.869233e-15 
9.869233e-15 0 0 0 9.869233e-15 0 0 0 9.869233e-15 
9.869233e-15 0 0 0 9.869233e-15 0 0 0 9.869233e-15 
9.869233e-15 0 0 0 9.869233e-15 0 0 0 9.869233e-15 
9.869233e-15 0 0 0 9.869233e-15 0 0 0 9.869233e-15 
9.869233e-15 0 0 0 9.869233e-15 0 0 0 9.869233e-15 
9.869233e-15 0 0 0 9.869233e-15 0 0 0 9.869233e-15 
SCALARS poro double 1
LOOKUP_TABLE default
0.2 
0.2 
0.2 
0.2 
0.2 
0.2 
0.2 
0.2 
SCALARS pressure double 1
LOOKUP_TABLE default
0 
0 
0 
0 
0 
0 
0 
0 
SCALARS saturation double 1
LOOKUP_TABLE default
0 
0 
0 
0 
0 
0 
0 
0 
SCALARS saturation_last double 1
LOOKUP_TABLE default
0 
0 
0 
0 
0 
0 
0 
0 
SCALARS test_fw double 1
LOOKUP_TABLE default
0 
0 
0 
0 
0 
0 
0 
0 
SCALARS verif_po double 1
LOOKUP_TABLE default
0 
0 
0 
0 
0 
0 
0 
0 
SCALARS verif_rest double 1
LOOKUP_TABLE default
0 
0 
0 
0 
0 
0 
0 
0 
SCALARS volume double 1
LOOKUP_TABLE default
6.25 
6.25 
6.25 
6.25 
6.25 
6.25 
6.25 
6.25 
VECTORS weight double
0 0 0 
0 0 0 
0 0 0 
0 0 0 
0 0 0 
0 0 0 
0 0 0 
0 0 0 
SCALARS P double 1
LOOKUP_TABLE default
7000000 
0 
0 
0 
0 
0 
0 
6900000 
SCALARS INJ int 1
LOOKUP_TABLE default
1 
0 
0 
0 
0 
0 
0 
0 
SCALARS PROD int 1
LOOKUP_TABLE default
0 
0 
0 
0 
0 
0 
0 
1 
