# vtk DataFile Version 3.0
MOAB 5.1.1
ASCII
DATASET UNSTRUCTURED_GRID
POINTS 68 double
0 0 0
0 0 -10
0 10.66875 -10
0 10.66875 0
2731.2 0 0
2731.2 0 -10
2731.2 10.66875 -10
2731.2 10.66875 0
170.7 0 0
341.4 0 0
512.1 0 0
682.8 0 0
853.5 0 0
1024.2 0 0
1194.9 0 0
1365.6 0 0
1536.3 0 0
1707 0 0
1877.7 0 0
2048.4 0 0
2219.1 0 0
2389.8 0 0
2560.5 0 0
170.7 0 -10
341.4 0 -10
512.1 0 -10
682.8 0 -10
853.5 0 -10
1024.2 0 -10
1194.9 0 -10
1365.6 0 -10
1536.3 0 -10
1707 0 -10
1877.7 0 -10
2048.4 0 -10
2219.1 0 -10
2389.8 0 -10
2560.5 0 -10
170.7 10.66875 -10
341.4 10.66875 -10
512.1 10.66875 -10
682.8 10.66875 -10
853.5 10.66875 -10
1024.2 10.66875 -10
1194.9 10.66875 -10
1365.6 10.66875 -10
1536.3 10.66875 -10
1707 10.66875 -10
1877.7 10.66875 -10
2048.4 10.66875 -10
2219.1 10.66875 -10
2389.8 10.66875 -10
2560.5 10.66875 -10
170.7 10.66875 0
341.4 10.66875 0
512.1 10.66875 0
682.8 10.66875 0
853.5 10.66875 0
1024.2 10.66875 0
1194.9 10.66875 0
1365.6 10.66875 0
1536.3 10.66875 0
1707 10.66875 0
1877.7 10.66875 0
2048.4 10.66875 0
2219.1 10.66875 0
2389.8 10.66875 0
2560.5 10.66875 0
CELLS 16 144
8 0 1 2 3 8 23 38 53
8 8 23 38 53 9 24 39 54
8 9 24 39 54 10 25 40 55
8 10 25 40 55 11 26 41 56
8 11 26 41 56 12 27 42 57
8 12 27 42 57 13 28 43 58
8 13 28 43 58 14 29 44 59
8 14 29 44 59 15 30 45 60
8 15 30 45 60 16 31 46 61
8 16 31 46 61 17 32 47 62
8 17 32 47 62 18 33 48 63
8 18 33 48 63 19 34 49 64
8 19 34 49 64 20 35 50 65
8 20 35 50 65 21 36 51 66
8 21 36 51 66 22 37 52 67
8 22 37 52 67 4 5 6 7
CELL_TYPES 16
12
12
12
12
12
12
12
12
12
12
12
12
12
12
12
12
POINT_DATA 68
SCALARS GLOBAL_ID int 1
LOOKUP_TABLE default
0 
1 
2 
3 
4 
5 
6 
7 
8 
9 
10 
11 
12 
13 
14 
15 
16 
17 
18 
19 
20 
21 
22 
23 
24 
25 
26 
27 
28 
29 
30 
31 
32 
33 
34 
35 
36 
37 
38 
39 
40 
41 
42 
43 
44 
45 
46 
47 
48 
49 
50 
51 
52 
53 
54 
55 
56 
57 
58 
59 
60 
61 
62 
63 
64 
65 
66 
67 
VECTORS NODES double
0 0 0 
0 0 -10 
0 10.66875 -10 
0 10.66875 0 
2731.2 0 0 
2731.2 0 -10 
2731.2 10.66875 -10 
2731.2 10.66875 0 
170.7 0 0 
341.4 0 0 
512.1 0 0 
682.8 0 0 
853.5 0 0 
1024.2 0 0 
1194.9 0 0 
1365.6 0 0 
1536.3 0 0 
1707 0 0 
1877.7 0 0 
2048.4 0 0 
2219.1 0 0 
2389.8 0 0 
2560.5 0 0 
170.7 0 -10 
341.4 0 -10 
512.1 0 -10 
682.8 0 -10 
853.5 0 -10 
1024.2 0 -10 
1194.9 0 -10 
1365.6 0 -10 
1536.3 0 -10 
1707 0 -10 
1877.7 0 -10 
2048.4 0 -10 
2219.1 0 -10 
2389.8 0 -10 
2560.5 0 -10 
170.7 10.66875 -10 
341.4 10.66875 -10 
512.1 10.66875 -10 
682.8 10.66875 -10 
853.5 10.66875 -10 
1024.2 10.66875 -10 
1194.9 10.66875 -10 
1365.6 10.66875 -10 
1536.3 10.66875 -10 
1707 10.66875 -10 
1877.7 10.66875 -10 
2048.4 10.66875 -10 
2219.1 10.66875 -10 
2389.8 10.66875 -10 
2560.5 10.66875 -10 
170.7 10.66875 0 
341.4 10.66875 0 
512.1 10.66875 0 
682.8 10.66875 0 
853.5 10.66875 0 
1024.2 10.66875 0 
1194.9 10.66875 0 
1365.6 10.66875 0 
1536.3 10.66875 0 
1707 10.66875 0 
1877.7 10.66875 0 
2048.4 10.66875 0 
2219.1 10.66875 0 
2389.8 10.66875 0 
2560.5 10.66875 0 
VECTORS centroid_nodes double
0 0 0 
0 0 -10 
0 10.66875 -10 
0 10.66875 0 
2731.2 0 0 
2731.2 0 -10 
2731.2 10.66875 -10 
2731.2 10.66875 0 
170.7 0 0 
341.4 0 0 
512.1 0 0 
682.8 0 0 
853.5 0 0 
1024.2 0 0 
1194.9 0 0 
1365.6 0 0 
1536.3 0 0 
1707 0 0 
1877.7 0 0 
2048.4 0 0 
2219.1 0 0 
2389.8 0 0 
2560.5 0 0 
170.7 0 -10 
341.4 0 -10 
512.1 0 -10 
682.8 0 -10 
853.5 0 -10 
1024.2 0 -10 
1194.9 0 -10 
1365.6 0 -10 
1536.3 0 -10 
1707 0 -10 
1877.7 0 -10 
2048.4 0 -10 
2219.1 0 -10 
2389.8 0 -10 
2560.5 0 -10 
170.7 10.66875 -10 
341.4 10.66875 -10 
512.1 10.66875 -10 
682.8 10.66875 -10 
853.5 10.66875 -10 
1024.2 10.66875 -10 
1194.9 10.66875 -10 
1365.6 10.66875 -10 
1536.3 10.66875 -10 
1707 10.66875 -10 
1877.7 10.66875 -10 
2048.4 10.66875 -10 
2219.1 10.66875 -10 
2389.8 10.66875 -10 
2560.5 10.66875 -10 
170.7 10.66875 0 
341.4 10.66875 0 
512.1 10.66875 0 
682.8 10.66875 0 
853.5 10.66875 0 
1024.2 10.66875 0 
1194.9 10.66875 0 
1365.6 10.66875 0 
1536.3 10.66875 0 
1707 10.66875 0 
1877.7 10.66875 0 
2048.4 10.66875 0 
2219.1 10.66875 0 
2389.8 10.66875 0 
2560.5 10.66875 0 
CELL_DATA 16
SCALARS GLOBAL_ID int 1
LOOKUP_TABLE default
0 
1 
2 
3 
4 
5 
6 
7 
8 
9 
10 
11 
12 
13 
14 
15 
VECTORS centroid_volumes double
85.35 5.334375 -5 
256.05 5.334375 -5 
426.75 5.334375 -5 
597.45 5.334375 -5 
768.15 5.334375 -5 
938.85 5.334375 -5 
1109.55 5.334375 -5 
1280.25 5.334375 -5 
1450.95 5.334375 -5 
1621.65 5.334375 -5 
1792.35 5.334375 -5 
1963.05 5.334375 -5 
2133.75 5.334375 -5 
2304.45 5.334375 -5 
2475.15 5.334375 -5 
2645.85 5.334375 -5 
SCALARS flux_grav_volumes double 1
LOOKUP_TABLE default
0 
0 
0 
0 
0 
0 
0 
0 
0 
0 
0 
0 
0 
0 
0 
0 
SCALARS flux_o_volumes double 1
LOOKUP_TABLE default
0 
0 
0 
0 
0 
0 
0 
0 
0 
0 
0 
0 
0 
0 
0 
0 
SCALARS flux_volumes double 1
LOOKUP_TABLE default
0 
0 
0 
0 
0 
0 
0 
0 
0 
0 
0 
0 
0 
0 
0 
0 
SCALARS flux_volumes_test double 1
LOOKUP_TABLE default
0 
0 
0 
0 
0 
0 
0 
0 
0 
0 
0 
0 
0 
0 
0 
0 
SCALARS flux_w_volumes double 1
LOOKUP_TABLE default
0 
0 
0 
0 
0 
0 
0 
0 
0 
0 
0 
0 
0 
0 
0 
0 
SCALARS fw_vol double 1
LOOKUP_TABLE default
0 
0 
0 
0 
0 
0 
0 
0 
0 
0 
0 
0 
0 
0 
0 
0 
SCALARS gama double 1
LOOKUP_TABLE default
10000 
10000 
10000 
10000 
10000 
10000 
10000 
10000 
10000 
10000 
10000 
10000 
10000 
10000 
10000 
10000 
VECTORS hs double
170.7 10.66875 10 
170.7 10.66875 10 
170.7 10.66875 10 
170.7 10.66875 10 
170.7 10.66875 10 
170.7 10.66875 10 
170.7 10.66875 10 
170.7 10.66875 10 
170.7 10.66875 10 
170.7 10.66875 10 
170.7 10.66875 10 
170.7 10.66875 10 
170.7 10.66875 10 
170.7 10.66875 10 
170.7 10.66875 10 
170.7 10.66875 10 
SCALARS kro double 1
LOOKUP_TABLE default
0 
0 
0 
0 
0 
0 
0 
0 
0 
0 
0 
0 
0 
0 
0 
0 
SCALARS krw double 1
LOOKUP_TABLE default
0 
0 
0 
0 
0 
0 
0 
0 
0 
0 
0 
0 
0 
0 
0 
0 
SCALARS lambda_o double 1
LOOKUP_TABLE default
0 
0 
0 
0 
0 
0 
0 
0 
0 
0 
0 
0 
0 
0 
0 
0 
SCALARS lambda_t double 1
LOOKUP_TABLE default
0 
0 
0 
0 
0 
0 
0 
0 
0 
0 
0 
0 
0 
0 
0 
0 
SCALARS lambda_w double 1
LOOKUP_TABLE default
0 
0 
0 
0 
0 
0 
0 
0 
0 
0 
0 
0 
0 
0 
0 
0 
SCALARS mass_oil_production double 1
LOOKUP_TABLE default
0 
0 
0 
0 
0 
0 
0 
0 
0 
0 
0 
0 
0 
0 
0 
0 
SCALARS mass_water_production double 1
LOOKUP_TABLE default
0 
0 
0 
0 
0 
0 
0 
0 
0 
0 
0 
0 
0 
0 
0 
0 
TENSORS permeability double
1e-14 0 0 0 1e-14 0 0 0 1e-14 
1e-14 0 0 0 1e-14 0 0 0 1e-14 
1e-14 0 0 0 1e-14 0 0 0 1e-14 
1e-14 0 0 0 1e-14 0 0 0 1e-14 
1e-14 0 0 0 1e-14 0 0 0 1e-14 
1e-14 0 0 0 1e-14 0 0 0 1e-14 
1e-14 0 0 0 1e-14 0 0 0 1e-14 
1e-14 0 0 0 1e-14 0 0 0 1e-14 
1e-14 0 0 0 1e-14 0 0 0 1e-14 
1e-14 0 0 0 1e-14 0 0 0 1e-14 
1e-14 0 0 0 1e-14 0 0 0 1e-14 
1e-14 0 0 0 1e-14 0 0 0 1e-14 
1e-14 0 0 0 1e-14 0 0 0 1e-14 
1e-14 0 0 0 1e-14 0 0 0 1e-14 
1e-14 0 0 0 1e-14 0 0 0 1e-14 
1e-14 0 0 0 1e-14 0 0 0 1e-14 
SCALARS poro double 1
LOOKUP_TABLE default
0.35 
0.35 
0.35 
0.35 
0.35 
0.35 
0.35 
0.35 
0.35 
0.35 
0.35 
0.35 
0.35 
0.35 
0.35 
0.35 
SCALARS pressure double 1
LOOKUP_TABLE default
0 
0 
0 
0 
0 
0 
0 
0 
0 
0 
0 
0 
0 
0 
0 
0 
SCALARS saturation double 1
LOOKUP_TABLE default
0.7363403496 
0.4240463572 
0.3004814558 
0.300000001 
0.3 
0.3 
0.3 
0.3 
0.3 
0.3 
0.3 
0.3 
0.3 
0.3 
0.3 
0.3 
SCALARS saturation_last double 1
LOOKUP_TABLE default
0 
0 
0 
0 
0 
0 
0 
0 
0 
0 
0 
0 
0 
0 
0 
0 
SCALARS test_fw double 1
LOOKUP_TABLE default
0 
0 
0 
0 
0 
0 
0 
0 
0 
0 
0 
0 
0 
0 
0 
0 
SCALARS verif_po double 1
LOOKUP_TABLE default
0 
0 
0 
0 
0 
0 
0 
0 
0 
0 
0 
0 
0 
0 
0 
0 
SCALARS verif_rest double 1
LOOKUP_TABLE default
0 
0 
0 
0 
0 
0 
0 
0 
0 
0 
0 
0 
0 
0 
0 
0 
SCALARS volume double 1
LOOKUP_TABLE default
18211.55625 
18211.55625 
18211.55625 
18211.55625 
18211.55625 
18211.55625 
18211.55625 
18211.55625 
18211.55625 
18211.55625 
18211.55625 
18211.55625 
18211.55625 
18211.55625 
18211.55625 
18211.55625 
VECTORS weight double
0 0 0 
0 0 0 
0 0 0 
0 0 0 
0 0 0 
0 0 0 
0 0 0 
0 0 0 
0 0 0 
0 0 0 
0 0 0 
0 0 0 
0 0 0 
0 0 0 
0 0 0 
0 0 0 
SCALARS P double 1
LOOKUP_TABLE default
0 
0 
0 
0 
0 
0 
0 
0 
0 
0 
0 
0 
0 
0 
0 
8960000 
SCALARS Q double 1
LOOKUP_TABLE default
22.98501562 
0 
0 
0 
0 
0 
0 
0 
0 
0 
0 
0 
0 
0 
0 
0 
SCALARS INJ int 1
LOOKUP_TABLE default
1 
0 
0 
0 
0 
0 
0 
0 
0 
0 
0 
0 
0 
0 
0 
0 
SCALARS PROD int 1
LOOKUP_TABLE default
0 
0 
0 
0 
0 
0 
0 
0 
0 
0 
0 
0 
0 
0 
0 
1 
