# vtk DataFile Version 3.0
MOAB 5.1.1
ASCII
DATASET UNSTRUCTURED_GRID
POINTS 132 double
0 0 0
0 0 -0.03048
0 0.03048 -0.03048
0 0.03048 0
0.6096 0 0
0.6096 0 -0.03048
0.6096 0.03048 -0.03048
0.6096 0.03048 0
0.01905 0 0
0.0381 0 0
0.05715 0 0
0.0762 0 0
0.09525 0 0
0.1143 0 0
0.13335 0 0
0.1524 0 0
0.17145 0 0
0.1905 0 0
0.20955 0 0
0.2286 0 0
0.24765 0 0
0.2667 0 0
0.28575 0 0
0.3048 0 0
0.32385 0 0
0.3429 0 0
0.36195 0 0
0.381 0 0
0.40005 0 0
0.4191 0 0
0.43815 0 0
0.4572 0 0
0.47625 0 0
0.4953 0 0
0.51435 0 0
0.5334 0 0
0.55245 0 0
0.5715 0 0
0.59055 0 0
0.01905 0 -0.03048
0.0381 0 -0.03048
0.05715 0 -0.03048
0.0762 0 -0.03048
0.09525 0 -0.03048
0.1143 0 -0.03048
0.13335 0 -0.03048
0.1524 0 -0.03048
0.17145 0 -0.03048
0.1905 0 -0.03048
0.20955 0 -0.03048
0.2286 0 -0.03048
0.24765 0 -0.03048
0.2667 0 -0.03048
0.28575 0 -0.03048
0.3048 0 -0.03048
0.32385 0 -0.03048
0.3429 0 -0.03048
0.36195 0 -0.03048
0.381 0 -0.03048
0.40005 0 -0.03048
0.4191 0 -0.03048
0.43815 0 -0.03048
0.4572 0 -0.03048
0.47625 0 -0.03048
0.4953 0 -0.03048
0.51435 0 -0.03048
0.5334 0 -0.03048
0.55245 0 -0.03048
0.5715 0 -0.03048
0.59055 0 -0.03048
0.01905 0.03048 -0.03048
0.0381 0.03048 -0.03048
0.05715 0.03048 -0.03048
0.0762 0.03048 -0.03048
0.09525 0.03048 -0.03048
0.1143 0.03048 -0.03048
0.13335 0.03048 -0.03048
0.1524 0.03048 -0.03048
0.17145 0.03048 -0.03048
0.1905 0.03048 -0.03048
0.20955 0.03048 -0.03048
0.2286 0.03048 -0.03048
0.24765 0.03048 -0.03048
0.2667 0.03048 -0.03048
0.28575 0.03048 -0.03048
0.3048 0.03048 -0.03048
0.32385 0.03048 -0.03048
0.3429 0.03048 -0.03048
0.36195 0.03048 -0.03048
0.381 0.03048 -0.03048
0.40005 0.03048 -0.03048
0.4191 0.03048 -0.03048
0.43815 0.03048 -0.03048
0.4572 0.03048 -0.03048
0.47625 0.03048 -0.03048
0.4953 0.03048 -0.03048
0.51435 0.03048 -0.03048
0.5334 0.03048 -0.03048
0.55245 0.03048 -0.03048
0.5715 0.03048 -0.03048
0.59055 0.03048 -0.03048
0.01905 0.03048 0
0.0381 0.03048 0
0.05715 0.03048 0
0.0762 0.03048 0
0.09525 0.03048 0
0.1143 0.03048 0
0.13335 0.03048 0
0.1524 0.03048 0
0.17145 0.03048 0
0.1905 0.03048 0
0.20955 0.03048 0
0.2286 0.03048 0
0.24765 0.03048 0
0.2667 0.03048 0
0.28575 0.03048 0
0.3048 0.03048 0
0.32385 0.03048 0
0.3429 0.03048 0
0.36195 0.03048 0
0.381 0.03048 0
0.40005 0.03048 0
0.4191 0.03048 0
0.43815 0.03048 0
0.4572 0.03048 0
0.47625 0.03048 0
0.4953 0.03048 0
0.51435 0.03048 0
0.5334 0.03048 0
0.55245 0.03048 0
0.5715 0.03048 0
0.59055 0.03048 0
CELLS 32 288
8 0 1 2 3 8 39 70 101
8 8 39 70 101 9 40 71 102
8 9 40 71 102 10 41 72 103
8 10 41 72 103 11 42 73 104
8 11 42 73 104 12 43 74 105
8 12 43 74 105 13 44 75 106
8 13 44 75 106 14 45 76 107
8 14 45 76 107 15 46 77 108
8 15 46 77 108 16 47 78 109
8 16 47 78 109 17 48 79 110
8 17 48 79 110 18 49 80 111
8 18 49 80 111 19 50 81 112
8 19 50 81 112 20 51 82 113
8 20 51 82 113 21 52 83 114
8 21 52 83 114 22 53 84 115
8 22 53 84 115 23 54 85 116
8 23 54 85 116 24 55 86 117
8 24 55 86 117 25 56 87 118
8 25 56 87 118 26 57 88 119
8 26 57 88 119 27 58 89 120
8 27 58 89 120 28 59 90 121
8 28 59 90 121 29 60 91 122
8 29 60 91 122 30 61 92 123
8 30 61 92 123 31 62 93 124
8 31 62 93 124 32 63 94 125
8 32 63 94 125 33 64 95 126
8 33 64 95 126 34 65 96 127
8 34 65 96 127 35 66 97 128
8 35 66 97 128 36 67 98 129
8 36 67 98 129 37 68 99 130
8 37 68 99 130 38 69 100 131
8 38 69 100 131 4 5 6 7
CELL_TYPES 32
12
12
12
12
12
12
12
12
12
12
12
12
12
12
12
12
12
12
12
12
12
12
12
12
12
12
12
12
12
12
12
12
POINT_DATA 132
SCALARS GLOBAL_ID int 1
LOOKUP_TABLE default
0 
1 
2 
3 
4 
5 
6 
7 
8 
9 
10 
11 
12 
13 
14 
15 
16 
17 
18 
19 
20 
21 
22 
23 
24 
25 
26 
27 
28 
29 
30 
31 
32 
33 
34 
35 
36 
37 
38 
39 
40 
41 
42 
43 
44 
45 
46 
47 
48 
49 
50 
51 
52 
53 
54 
55 
56 
57 
58 
59 
60 
61 
62 
63 
64 
65 
66 
67 
68 
69 
70 
71 
72 
73 
74 
75 
76 
77 
78 
79 
80 
81 
82 
83 
84 
85 
86 
87 
88 
89 
90 
91 
92 
93 
94 
95 
96 
97 
98 
99 
100 
101 
102 
103 
104 
105 
106 
107 
108 
109 
110 
111 
112 
113 
114 
115 
116 
117 
118 
119 
120 
121 
122 
123 
124 
125 
126 
127 
128 
129 
130 
131 
VECTORS NODES double
0 0 0 
0 0 -0.03048 
0 0.03048 -0.03048 
0 0.03048 0 
0.6096 0 0 
0.6096 0 -0.03048 
0.6096 0.03048 -0.03048 
0.6096 0.03048 0 
0.01905 0 0 
0.0381 0 0 
0.05715 0 0 
0.0762 0 0 
0.09525 0 0 
0.1143 0 0 
0.13335 0 0 
0.1524 0 0 
0.17145 0 0 
0.1905 0 0 
0.20955 0 0 
0.2286 0 0 
0.24765 0 0 
0.2667 0 0 
0.28575 0 0 
0.3048 0 0 
0.32385 0 0 
0.3429 0 0 
0.36195 0 0 
0.381 0 0 
0.40005 0 0 
0.4191 0 0 
0.43815 0 0 
0.4572 0 0 
0.47625 0 0 
0.4953 0 0 
0.51435 0 0 
0.5334 0 0 
0.55245 0 0 
0.5715 0 0 
0.59055 0 0 
0.01905 0 -0.03048 
0.0381 0 -0.03048 
0.05715 0 -0.03048 
0.0762 0 -0.03048 
0.09525 0 -0.03048 
0.1143 0 -0.03048 
0.13335 0 -0.03048 
0.1524 0 -0.03048 
0.17145 0 -0.03048 
0.1905 0 -0.03048 
0.20955 0 -0.03048 
0.2286 0 -0.03048 
0.24765 0 -0.03048 
0.2667 0 -0.03048 
0.28575 0 -0.03048 
0.3048 0 -0.03048 
0.32385 0 -0.03048 
0.3429 0 -0.03048 
0.36195 0 -0.03048 
0.381 0 -0.03048 
0.40005 0 -0.03048 
0.4191 0 -0.03048 
0.43815 0 -0.03048 
0.4572 0 -0.03048 
0.47625 0 -0.03048 
0.4953 0 -0.03048 
0.51435 0 -0.03048 
0.5334 0 -0.03048 
0.55245 0 -0.03048 
0.5715 0 -0.03048 
0.59055 0 -0.03048 
0.01905 0.03048 -0.03048 
0.0381 0.03048 -0.03048 
0.05715 0.03048 -0.03048 
0.0762 0.03048 -0.03048 
0.09525 0.03048 -0.03048 
0.1143 0.03048 -0.03048 
0.13335 0.03048 -0.03048 
0.1524 0.03048 -0.03048 
0.17145 0.03048 -0.03048 
0.1905 0.03048 -0.03048 
0.20955 0.03048 -0.03048 
0.2286 0.03048 -0.03048 
0.24765 0.03048 -0.03048 
0.2667 0.03048 -0.03048 
0.28575 0.03048 -0.03048 
0.3048 0.03048 -0.03048 
0.32385 0.03048 -0.03048 
0.3429 0.03048 -0.03048 
0.36195 0.03048 -0.03048 
0.381 0.03048 -0.03048 
0.40005 0.03048 -0.03048 
0.4191 0.03048 -0.03048 
0.43815 0.03048 -0.03048 
0.4572 0.03048 -0.03048 
0.47625 0.03048 -0.03048 
0.4953 0.03048 -0.03048 
0.51435 0.03048 -0.03048 
0.5334 0.03048 -0.03048 
0.55245 0.03048 -0.03048 
0.5715 0.03048 -0.03048 
0.59055 0.03048 -0.03048 
0.01905 0.03048 0 
0.0381 0.03048 0 
0.05715 0.03048 0 
0.0762 0.03048 0 
0.09525 0.03048 0 
0.1143 0.03048 0 
0.13335 0.03048 0 
0.1524 0.03048 0 
0.17145 0.03048 0 
0.1905 0.03048 0 
0.20955 0.03048 0 
0.2286 0.03048 0 
0.24765 0.03048 0 
0.2667 0.03048 0 
0.28575 0.03048 0 
0.3048 0.03048 0 
0.32385 0.03048 0 
0.3429 0.03048 0 
0.36195 0.03048 0 
0.381 0.03048 0 
0.40005 0.03048 0 
0.4191 0.03048 0 
0.43815 0.03048 0 
0.4572 0.03048 0 
0.47625 0.03048 0 
0.4953 0.03048 0 
0.51435 0.03048 0 
0.5334 0.03048 0 
0.55245 0.03048 0 
0.5715 0.03048 0 
0.59055 0.03048 0 
VECTORS centroid_nodes double
0 0 0 
0 0 -0.03048 
0 0.03048 -0.03048 
0 0.03048 0 
0.6096 0 0 
0.6096 0 -0.03048 
0.6096 0.03048 -0.03048 
0.6096 0.03048 0 
0.01905 0 0 
0.0381 0 0 
0.05715 0 0 
0.0762 0 0 
0.09525 0 0 
0.1143 0 0 
0.13335 0 0 
0.1524 0 0 
0.17145 0 0 
0.1905 0 0 
0.20955 0 0 
0.2286 0 0 
0.24765 0 0 
0.2667 0 0 
0.28575 0 0 
0.3048 0 0 
0.32385 0 0 
0.3429 0 0 
0.36195 0 0 
0.381 0 0 
0.40005 0 0 
0.4191 0 0 
0.43815 0 0 
0.4572 0 0 
0.47625 0 0 
0.4953 0 0 
0.51435 0 0 
0.5334 0 0 
0.55245 0 0 
0.5715 0 0 
0.59055 0 0 
0.01905 0 -0.03048 
0.0381 0 -0.03048 
0.05715 0 -0.03048 
0.0762 0 -0.03048 
0.09525 0 -0.03048 
0.1143 0 -0.03048 
0.13335 0 -0.03048 
0.1524 0 -0.03048 
0.17145 0 -0.03048 
0.1905 0 -0.03048 
0.20955 0 -0.03048 
0.2286 0 -0.03048 
0.24765 0 -0.03048 
0.2667 0 -0.03048 
0.28575 0 -0.03048 
0.3048 0 -0.03048 
0.32385 0 -0.03048 
0.3429 0 -0.03048 
0.36195 0 -0.03048 
0.381 0 -0.03048 
0.40005 0 -0.03048 
0.4191 0 -0.03048 
0.43815 0 -0.03048 
0.4572 0 -0.03048 
0.47625 0 -0.03048 
0.4953 0 -0.03048 
0.51435 0 -0.03048 
0.5334 0 -0.03048 
0.55245 0 -0.03048 
0.5715 0 -0.03048 
0.59055 0 -0.03048 
0.01905 0.03048 -0.03048 
0.0381 0.03048 -0.03048 
0.05715 0.03048 -0.03048 
0.0762 0.03048 -0.03048 
0.09525 0.03048 -0.03048 
0.1143 0.03048 -0.03048 
0.13335 0.03048 -0.03048 
0.1524 0.03048 -0.03048 
0.17145 0.03048 -0.03048 
0.1905 0.03048 -0.03048 
0.20955 0.03048 -0.03048 
0.2286 0.03048 -0.03048 
0.24765 0.03048 -0.03048 
0.2667 0.03048 -0.03048 
0.28575 0.03048 -0.03048 
0.3048 0.03048 -0.03048 
0.32385 0.03048 -0.03048 
0.3429 0.03048 -0.03048 
0.36195 0.03048 -0.03048 
0.381 0.03048 -0.03048 
0.40005 0.03048 -0.03048 
0.4191 0.03048 -0.03048 
0.43815 0.03048 -0.03048 
0.4572 0.03048 -0.03048 
0.47625 0.03048 -0.03048 
0.4953 0.03048 -0.03048 
0.51435 0.03048 -0.03048 
0.5334 0.03048 -0.03048 
0.55245 0.03048 -0.03048 
0.5715 0.03048 -0.03048 
0.59055 0.03048 -0.03048 
0.01905 0.03048 0 
0.0381 0.03048 0 
0.05715 0.03048 0 
0.0762 0.03048 0 
0.09525 0.03048 0 
0.1143 0.03048 0 
0.13335 0.03048 0 
0.1524 0.03048 0 
0.17145 0.03048 0 
0.1905 0.03048 0 
0.20955 0.03048 0 
0.2286 0.03048 0 
0.24765 0.03048 0 
0.2667 0.03048 0 
0.28575 0.03048 0 
0.3048 0.03048 0 
0.32385 0.03048 0 
0.3429 0.03048 0 
0.36195 0.03048 0 
0.381 0.03048 0 
0.40005 0.03048 0 
0.4191 0.03048 0 
0.43815 0.03048 0 
0.4572 0.03048 0 
0.47625 0.03048 0 
0.4953 0.03048 0 
0.51435 0.03048 0 
0.5334 0.03048 0 
0.55245 0.03048 0 
0.5715 0.03048 0 
0.59055 0.03048 0 
CELL_DATA 32
SCALARS GLOBAL_ID int 1
LOOKUP_TABLE default
0 
1 
2 
3 
4 
5 
6 
7 
8 
9 
10 
11 
12 
13 
14 
15 
16 
17 
18 
19 
20 
21 
22 
23 
24 
25 
26 
27 
28 
29 
30 
31 
SCALARS Sg double 1
LOOKUP_TABLE default
0 
0 
0 
0 
0 
0 
0 
0 
0 
0 
0 
0 
0 
0 
0 
0 
0 
0 
0 
0 
0 
0 
0 
0 
0 
0 
0 
0 
0 
0 
0 
0 
SCALARS So double 1
LOOKUP_TABLE default
0.1310493305 
0.138397513 
0.1523271188 
0.1651582527 
0.1771121472 
0.1883540842 
0.1989049274 
0.2090175172 
0.2188712683 
0.2281304292 
0.2366154607 
0.2456130509 
0.2532840425 
0.2611424272 
0.267412981 
0.2743087277 
0.2793787535 
0.2835818673 
0.2946257223 
0.293295546 
0.275499766 
0.2760822955 
0.3008983844 
0.3747754702 
0.7761935108 
0.8999694056 
0.9 
0.9 
0.9 
0.9 
0.9 
0.9 
VECTORS centroid_volumes double
0.009525 0.01524 -0.01524 
0.028575 0.01524 -0.01524 
0.047625 0.01524 -0.01524 
0.066675 0.01524 -0.01524 
0.085725 0.01524 -0.01524 
0.104775 0.01524 -0.01524 
0.123825 0.01524 -0.01524 
0.142875 0.01524 -0.01524 
0.161925 0.01524 -0.01524 
0.180975 0.01524 -0.01524 
0.200025 0.01524 -0.01524 
0.219075 0.01524 -0.01524 
0.238125 0.01524 -0.01524 
0.257175 0.01524 -0.01524 
0.276225 0.01524 -0.01524 
0.295275 0.01524 -0.01524 
0.314325 0.01524 -0.01524 
0.333375 0.01524 -0.01524 
0.352425 0.01524 -0.01524 
0.371475 0.01524 -0.01524 
0.390525 0.01524 -0.01524 
0.409575 0.01524 -0.01524 
0.428625 0.01524 -0.01524 
0.447675 0.01524 -0.01524 
0.466725 0.01524 -0.01524 
0.485775 0.01524 -0.01524 
0.504825 0.01524 -0.01524 
0.523875 0.01524 -0.01524 
0.542925 0.01524 -0.01524 
0.561975 0.01524 -0.01524 
0.581025 0.01524 -0.01524 
0.600075 0.01524 -0.01524 
SCALARS flux_grav_volumes double 1
LOOKUP_TABLE default
0 
0 
0 
0 
0 
0 
0 
0 
0 
0 
0 
0 
0 
0 
0 
0 
0 
0 
0 
0 
0 
0 
0 
0 
0 
0 
0 
0 
0 
0 
0 
0 
SCALARS flux_o_volumes double 1
LOOKUP_TABLE default
0 
0 
0 
0 
0 
0 
0 
0 
0 
0 
0 
0 
0 
0 
0 
0 
0 
0 
0 
0 
0 
0 
0 
0 
0 
0 
0 
0 
0 
0 
0 
0 
SCALARS flux_volumes double 1
LOOKUP_TABLE default
0 
0 
0 
0 
0 
0 
0 
0 
0 
0 
0 
0 
0 
0 
0 
0 
0 
0 
0 
0 
0 
0 
0 
0 
0 
0 
0 
0 
0 
0 
0 
0 
SCALARS flux_volumes_test double 1
LOOKUP_TABLE default
0 
0 
0 
0 
0 
0 
0 
0 
0 
0 
0 
0 
0 
0 
0 
0 
0 
0 
0 
0 
0 
0 
0 
0 
0 
0 
0 
0 
0 
0 
0 
0 
SCALARS flux_w_volumes double 1
LOOKUP_TABLE default
0 
0 
0 
0 
0 
0 
0 
0 
0 
0 
0 
0 
0 
0 
0 
0 
0 
0 
0 
0 
0 
0 
0 
0 
0 
0 
0 
0 
0 
0 
0 
0 
SCALARS fw_vol double 1
LOOKUP_TABLE default
0 
0 
0 
0 
0 
0 
0 
0 
0 
0 
0 
0 
0 
0 
0 
0 
0 
0 
0 
0 
0 
0 
0 
0 
0 
0 
0 
0 
0 
0 
0 
0 
SCALARS gama double 1
LOOKUP_TABLE default
10000 
10000 
10000 
10000 
10000 
10000 
10000 
10000 
10000 
10000 
10000 
10000 
10000 
10000 
10000 
10000 
10000 
10000 
10000 
10000 
10000 
10000 
10000 
10000 
10000 
10000 
10000 
10000 
10000 
10000 
10000 
10000 
VECTORS hs double
0.01905 0.03048 0.03048 
0.01905 0.03048 0.03048 
0.01905 0.03048 0.03048 
0.01905 0.03048 0.03048 
0.01905 0.03048 0.03048 
0.01905 0.03048 0.03048 
0.01905 0.03048 0.03048 
0.01905 0.03048 0.03048 
0.01905 0.03048 0.03048 
0.01905 0.03048 0.03048 
0.01905 0.03048 0.03048 
0.01905 0.03048 0.03048 
0.01905 0.03048 0.03048 
0.01905 0.03048 0.03048 
0.01905 0.03048 0.03048 
0.01905 0.03048 0.03048 
0.01905 0.03048 0.03048 
0.01905 0.03048 0.03048 
0.01905 0.03048 0.03048 
0.01905 0.03048 0.03048 
0.01905 0.03048 0.03048 
0.01905 0.03048 0.03048 
0.01905 0.03048 0.03048 
0.01905 0.03048 0.03048 
0.01905 0.03048 0.03048 
0.01905 0.03048 0.03048 
0.01905 0.03048 0.03048 
0.01905 0.03048 0.03048 
0.01905 0.03048 0.03048 
0.01905 0.03048 0.03048 
0.01905 0.03048 0.03048 
0.01905 0.03048 0.03048 
SCALARS kro double 1
LOOKUP_TABLE default
0 
0 
0 
0 
0 
0 
0 
0 
0 
0 
0 
0 
0 
0 
0 
0 
0 
0 
0 
0 
0 
0 
0 
0 
0 
0 
0 
0 
0 
0 
0 
0 
SCALARS krw double 1
LOOKUP_TABLE default
0 
0 
0 
0 
0 
0 
0 
0 
0 
0 
0 
0 
0 
0 
0 
0 
0 
0 
0 
0 
0 
0 
0 
0 
0 
0 
0 
0 
0 
0 
0 
0 
SCALARS lambda_o double 1
LOOKUP_TABLE default
0 
0 
0 
0 
0 
0 
0 
0 
0 
0 
0 
0 
0 
0 
0 
0 
0 
0 
0 
0 
0 
0 
0 
0 
0 
0 
0 
0 
0 
0 
0 
0 
SCALARS lambda_t double 1
LOOKUP_TABLE default
0 
0 
0 
0 
0 
0 
0 
0 
0 
0 
0 
0 
0 
0 
0 
0 
0 
0 
0 
0 
0 
0 
0 
0 
0 
0 
0 
0 
0 
0 
0 
0 
SCALARS lambda_w double 1
LOOKUP_TABLE default
0 
0 
0 
0 
0 
0 
0 
0 
0 
0 
0 
0 
0 
0 
0 
0 
0 
0 
0 
0 
0 
0 
0 
0 
0 
0 
0 
0 
0 
0 
0 
0 
SCALARS mass_oil_production double 1
LOOKUP_TABLE default
0 
0 
0 
0 
0 
0 
0 
0 
0 
0 
0 
0 
0 
0 
0 
0 
0 
0 
0 
0 
0 
0 
0 
0 
0 
0 
0 
0 
0 
0 
0 
0 
SCALARS mass_water_production double 1
LOOKUP_TABLE default
0 
0 
0 
0 
0 
0 
0 
0 
0 
0 
0 
0 
0 
0 
0 
0 
0 
0 
0 
0 
0 
0 
0 
0 
0 
0 
0 
0 
0 
0 
0 
0 
TENSORS permeability double
4.934617e-13 0 0 0 4.934617e-13 0 0 0 4.934617e-13 
4.934617e-13 0 0 0 4.934617e-13 0 0 0 4.934617e-13 
4.934617e-13 0 0 0 4.934617e-13 0 0 0 4.934617e-13 
4.934617e-13 0 0 0 4.934617e-13 0 0 0 4.934617e-13 
4.934617e-13 0 0 0 4.934617e-13 0 0 0 4.934617e-13 
4.934617e-13 0 0 0 4.934617e-13 0 0 0 4.934617e-13 
4.934617e-13 0 0 0 4.934617e-13 0 0 0 4.934617e-13 
4.934617e-13 0 0 0 4.934617e-13 0 0 0 4.934617e-13 
4.934617e-13 0 0 0 4.934617e-13 0 0 0 4.934617e-13 
4.934617e-13 0 0 0 4.934617e-13 0 0 0 4.934617e-13 
4.934617e-13 0 0 0 4.934617e-13 0 0 0 4.934617e-13 
4.934617e-13 0 0 0 4.934617e-13 0 0 0 4.934617e-13 
4.934617e-13 0 0 0 4.934617e-13 0 0 0 4.934617e-13 
4.934617e-13 0 0 0 4.934617e-13 0 0 0 4.934617e-13 
4.934617e-13 0 0 0 4.934617e-13 0 0 0 4.934617e-13 
4.934617e-13 0 0 0 4.934617e-13 0 0 0 4.934617e-13 
4.934617e-13 0 0 0 4.934617e-13 0 0 0 4.934617e-13 
4.934617e-13 0 0 0 4.934617e-13 0 0 0 4.934617e-13 
4.934617e-13 0 0 0 4.934617e-13 0 0 0 4.934617e-13 
4.934617e-13 0 0 0 4.934617e-13 0 0 0 4.934617e-13 
4.934617e-13 0 0 0 4.934617e-13 0 0 0 4.934617e-13 
4.934617e-13 0 0 0 4.934617e-13 0 0 0 4.934617e-13 
4.934617e-13 0 0 0 4.934617e-13 0 0 0 4.934617e-13 
4.934617e-13 0 0 0 4.934617e-13 0 0 0 4.934617e-13 
4.934617e-13 0 0 0 4.934617e-13 0 0 0 4.934617e-13 
4.934617e-13 0 0 0 4.934617e-13 0 0 0 4.934617e-13 
4.934617e-13 0 0 0 4.934617e-13 0 0 0 4.934617e-13 
4.934617e-13 0 0 0 4.934617e-13 0 0 0 4.934617e-13 
4.934617e-13 0 0 0 4.934617e-13 0 0 0 4.934617e-13 
4.934617e-13 0 0 0 4.934617e-13 0 0 0 4.934617e-13 
4.934617e-13 0 0 0 4.934617e-13 0 0 0 4.934617e-13 
4.934617e-13 0 0 0 4.934617e-13 0 0 0 4.934617e-13 
SCALARS poro double 1
LOOKUP_TABLE default
1 
1 
1 
1 
1 
1 
1 
1 
1 
1 
1 
1 
1 
1 
1 
1 
1 
1 
1 
1 
1 
1 
1 
1 
1 
1 
1 
1 
1 
1 
1 
1 
SCALARS pressure double 1
LOOKUP_TABLE default
0 
0 
0 
0 
0 
0 
0 
0 
0 
0 
0 
0 
0 
0 
0 
0 
0 
0 
0 
0 
0 
0 
0 
0 
0 
0 
0 
0 
0 
0 
0 
0 
SCALARS saturation double 1
LOOKUP_TABLE default
0.8689506695 
0.861602487 
0.8476728812 
0.8348417473 
0.8228878528 
0.8116459158 
0.8010950726 
0.7909824828 
0.7811287317 
0.7718695708 
0.7633845393 
0.7543869491 
0.7467159575 
0.7388575728 
0.732587019 
0.7256912723 
0.7206212465 
0.7164181327 
0.7053742777 
0.706704454 
0.724500234 
0.7239177045 
0.6991016156 
0.6252245298 
0.2238064892 
0.1000305944 
0.1 
0.1 
0.1 
0.1 
0.1 
0.1 
SCALARS saturation_last double 1
LOOKUP_TABLE default
0 
0 
0 
0 
0 
0 
0 
0 
0 
0 
0 
0 
0 
0 
0 
0 
0 
0 
0 
0 
0 
0 
0 
0 
0 
0 
0 
0 
0 
0 
0 
0 
SCALARS test_fw double 1
LOOKUP_TABLE default
0 
0 
0 
0 
0 
0 
0 
0 
0 
0 
0 
0 
0 
0 
0 
0 
0 
0 
0 
0 
0 
0 
0 
0 
0 
0 
0 
0 
0 
0 
0 
0 
SCALARS verif_po double 1
LOOKUP_TABLE default
0 
0 
0 
0 
0 
0 
0 
0 
0 
0 
0 
0 
0 
0 
0 
0 
0 
0 
0 
0 
0 
0 
0 
0 
0 
0 
0 
0 
0 
0 
0 
0 
SCALARS verif_rest double 1
LOOKUP_TABLE default
0 
0 
0 
0 
0 
0 
0 
0 
0 
0 
0 
0 
0 
0 
0 
0 
0 
0 
0 
0 
0 
0 
0 
0 
0 
0 
0 
0 
0 
0 
0 
0 
SCALARS volume double 1
LOOKUP_TABLE default
1.769802912e-05 
1.769802912e-05 
1.769802912e-05 
1.769802912e-05 
1.769802912e-05 
1.769802912e-05 
1.769802912e-05 
1.769802912e-05 
1.769802912e-05 
1.769802912e-05 
1.769802912e-05 
1.769802912e-05 
1.769802912e-05 
1.769802912e-05 
1.769802912e-05 
1.769802912e-05 
1.769802912e-05 
1.769802912e-05 
1.769802912e-05 
1.769802912e-05 
1.769802912e-05 
1.769802912e-05 
1.769802912e-05 
1.769802912e-05 
1.769802912e-05 
1.769802912e-05 
1.769802912e-05 
1.769802912e-05 
1.769802912e-05 
1.769802912e-05 
1.769802912e-05 
1.769802912e-05 
VECTORS weight double
0 0 0 
0 0 0 
0 0 0 
0 0 0 
0 0 0 
0 0 0 
0 0 0 
0 0 0 
0 0 0 
0 0 0 
0 0 0 
0 0 0 
0 0 0 
0 0 0 
0 0 0 
0 0 0 
0 0 0 
0 0 0 
0 0 0 
0 0 0 
0 0 0 
0 0 0 
0 0 0 
0 0 0 
0 0 0 
0 0 0 
0 0 0 
0 0 0 
0 0 0 
0 0 0 
0 0 0 
0 0 0 
SCALARS P double 1
LOOKUP_TABLE default
0 
0 
0 
0 
0 
0 
0 
0 
0 
0 
0 
0 
0 
0 
0 
0 
0 
0 
0 
0 
0 
0 
0 
0 
0 
0 
0 
0 
0 
0 
0 
25579000 
SCALARS Q double 1
LOOKUP_TABLE default
0.001818450161 
0 
0 
0 
0 
0 
0 
0 
0 
0 
0 
0 
0 
0 
0 
0 
0 
0 
0 
0 
0 
0 
0 
0 
0 
0 
0 
0 
0 
0 
0 
0 
SCALARS INJ int 1
LOOKUP_TABLE default
1 
0 
0 
0 
0 
0 
0 
0 
0 
0 
0 
0 
0 
0 
0 
0 
0 
0 
0 
0 
0 
0 
0 
0 
0 
0 
0 
0 
0 
0 
0 
0 
SCALARS PROD int 1
LOOKUP_TABLE default
0 
0 
0 
0 
0 
0 
0 
0 
0 
0 
0 
0 
0 
0 
0 
0 
0 
0 
0 
0 
0 
0 
0 
0 
0 
0 
0 
0 
0 
0 
0 
1 
