# vtk DataFile Version 3.0
MOAB 5.1.1
ASCII
DATASET UNSTRUCTURED_GRID
POINTS 36 double
0 0 0
0 0 -10
0 10.66875 -10
0 10.66875 0
2731.2 0 0
2731.2 0 -10
2731.2 10.66875 -10
2731.2 10.66875 0
341.4 0 0
682.8 0 0
1024.2 0 0
1365.6 0 0
1707 0 0
2048.4 0 0
2389.8 0 0
341.4 0 -10
682.8 0 -10
1024.2 0 -10
1365.6 0 -10
1707 0 -10
2048.4 0 -10
2389.8 0 -10
341.4 10.66875 -10
682.8 10.66875 -10
1024.2 10.66875 -10
1365.6 10.66875 -10
1707 10.66875 -10
2048.4 10.66875 -10
2389.8 10.66875 -10
341.4 10.66875 0
682.8 10.66875 0
1024.2 10.66875 0
1365.6 10.66875 0
1707 10.66875 0
2048.4 10.66875 0
2389.8 10.66875 0
CELLS 8 72
8 0 1 2 3 8 15 22 29
8 8 15 22 29 9 16 23 30
8 9 16 23 30 10 17 24 31
8 10 17 24 31 11 18 25 32
8 11 18 25 32 12 19 26 33
8 12 19 26 33 13 20 27 34
8 13 20 27 34 14 21 28 35
8 14 21 28 35 4 5 6 7
CELL_TYPES 8
12
12
12
12
12
12
12
12
POINT_DATA 36
SCALARS GLOBAL_ID int 1
LOOKUP_TABLE default
0 
1 
2 
3 
4 
5 
6 
7 
8 
9 
10 
11 
12 
13 
14 
15 
16 
17 
18 
19 
20 
21 
22 
23 
24 
25 
26 
27 
28 
29 
30 
31 
32 
33 
34 
35 
VECTORS NODES double
0 0 0 
0 0 -10 
0 10.66875 -10 
0 10.66875 0 
2731.2 0 0 
2731.2 0 -10 
2731.2 10.66875 -10 
2731.2 10.66875 0 
341.4 0 0 
682.8 0 0 
1024.2 0 0 
1365.6 0 0 
1707 0 0 
2048.4 0 0 
2389.8 0 0 
341.4 0 -10 
682.8 0 -10 
1024.2 0 -10 
1365.6 0 -10 
1707 0 -10 
2048.4 0 -10 
2389.8 0 -10 
341.4 10.66875 -10 
682.8 10.66875 -10 
1024.2 10.66875 -10 
1365.6 10.66875 -10 
1707 10.66875 -10 
2048.4 10.66875 -10 
2389.8 10.66875 -10 
341.4 10.66875 0 
682.8 10.66875 0 
1024.2 10.66875 0 
1365.6 10.66875 0 
1707 10.66875 0 
2048.4 10.66875 0 
2389.8 10.66875 0 
VECTORS centroid_nodes double
0 0 0 
0 0 -10 
0 10.66875 -10 
0 10.66875 0 
2731.2 0 0 
2731.2 0 -10 
2731.2 10.66875 -10 
2731.2 10.66875 0 
341.4 0 0 
682.8 0 0 
1024.2 0 0 
1365.6 0 0 
1707 0 0 
2048.4 0 0 
2389.8 0 0 
341.4 0 -10 
682.8 0 -10 
1024.2 0 -10 
1365.6 0 -10 
1707 0 -10 
2048.4 0 -10 
2389.8 0 -10 
341.4 10.66875 -10 
682.8 10.66875 -10 
1024.2 10.66875 -10 
1365.6 10.66875 -10 
1707 10.66875 -10 
2048.4 10.66875 -10 
2389.8 10.66875 -10 
341.4 10.66875 0 
682.8 10.66875 0 
1024.2 10.66875 0 
1365.6 10.66875 0 
1707 10.66875 0 
2048.4 10.66875 0 
2389.8 10.66875 0 
CELL_DATA 8
SCALARS GLOBAL_ID int 1
LOOKUP_TABLE default
0 
1 
2 
3 
4 
5 
6 
7 
VECTORS centroid_volumes double
170.7 5.334375 -5 
512.1 5.334375 -5 
853.5 5.334375 -5 
1194.9 5.334375 -5 
1536.3 5.334375 -5 
1877.7 5.334375 -5 
2219.1 5.334375 -5 
2560.5 5.334375 -5 
SCALARS flux_grav_volumes double 1
LOOKUP_TABLE default
0 
0 
0 
0 
0 
0 
0 
0 
SCALARS flux_o_volumes double 1
LOOKUP_TABLE default
0 
0 
0 
0 
0 
0 
0 
0 
SCALARS flux_volumes double 1
LOOKUP_TABLE default
0 
0 
0 
0 
0 
0 
0 
0 
SCALARS flux_volumes_test double 1
LOOKUP_TABLE default
0 
0 
0 
0 
0 
0 
0 
0 
SCALARS flux_w_volumes double 1
LOOKUP_TABLE default
0 
0 
0 
0 
0 
0 
0 
0 
SCALARS fw_vol double 1
LOOKUP_TABLE default
0 
0 
0 
0 
0 
0 
0 
0 
SCALARS gama double 1
LOOKUP_TABLE default
10000 
10000 
10000 
10000 
10000 
10000 
10000 
10000 
VECTORS hs double
341.4 10.66875 10 
341.4 10.66875 10 
341.4 10.66875 10 
341.4 10.66875 10 
341.4 10.66875 10 
341.4 10.66875 10 
341.4 10.66875 10 
341.4 10.66875 10 
SCALARS kro double 1
LOOKUP_TABLE default
0 
0 
0 
0 
0 
0 
0 
0 
SCALARS krw double 1
LOOKUP_TABLE default
0 
0 
0 
0 
0 
0 
0 
0 
SCALARS lambda_o double 1
LOOKUP_TABLE default
0 
0 
0 
0 
0 
0 
0 
0 
SCALARS lambda_t double 1
LOOKUP_TABLE default
0 
0 
0 
0 
0 
0 
0 
0 
SCALARS lambda_w double 1
LOOKUP_TABLE default
0 
0 
0 
0 
0 
0 
0 
0 
SCALARS mass_oil_production double 1
LOOKUP_TABLE default
0 
0 
0 
0 
0 
0 
0 
0 
SCALARS mass_water_production double 1
LOOKUP_TABLE default
0 
0 
0 
0 
0 
0 
0 
0 
TENSORS permeability double
1e-14 0 0 0 1e-14 0 0 0 1e-14 
1e-14 0 0 0 1e-14 0 0 0 1e-14 
1e-14 0 0 0 1e-14 0 0 0 1e-14 
1e-14 0 0 0 1e-14 0 0 0 1e-14 
1e-14 0 0 0 1e-14 0 0 0 1e-14 
1e-14 0 0 0 1e-14 0 0 0 1e-14 
1e-14 0 0 0 1e-14 0 0 0 1e-14 
1e-14 0 0 0 1e-14 0 0 0 1e-14 
SCALARS poro double 1
LOOKUP_TABLE default
0.35 
0.35 
0.35 
0.35 
0.35 
0.35 
0.35 
0.35 
SCALARS pressure double 1
LOOKUP_TABLE default
0 
0 
0 
0 
0 
0 
0 
0 
SCALARS saturation double 1
LOOKUP_TABLE default
0.7218095795 
0.4381496902 
0.3009088928 
0.3000000011 
0.3 
0.3 
0.3 
0.3 
SCALARS saturation_last double 1
LOOKUP_TABLE default
0 
0 
0 
0 
0 
0 
0 
0 
SCALARS test_fw double 1
LOOKUP_TABLE default
0 
0 
0 
0 
0 
0 
0 
0 
SCALARS verif_po double 1
LOOKUP_TABLE default
0 
0 
0 
0 
0 
0 
0 
0 
SCALARS verif_rest double 1
LOOKUP_TABLE default
0 
0 
0 
0 
0 
0 
0 
0 
SCALARS volume double 1
LOOKUP_TABLE default
36423.1125 
36423.1125 
36423.1125 
36423.1125 
36423.1125 
36423.1125 
36423.1125 
36423.1125 
VECTORS weight double
0 0 0 
0 0 0 
0 0 0 
0 0 0 
0 0 0 
0 0 0 
0 0 0 
0 0 0 
SCALARS P double 1
LOOKUP_TABLE default
0 
0 
0 
0 
0 
0 
0 
8960000 
SCALARS Q double 1
LOOKUP_TABLE default
22.98501562 
0 
0 
0 
0 
0 
0 
0 
SCALARS INJ int 1
LOOKUP_TABLE default
1 
0 
0 
0 
0 
0 
0 
0 
SCALARS PROD int 1
LOOKUP_TABLE default
0 
0 
0 
0 
0 
0 
0 
1 
