# vtk DataFile Version 3.0
MOAB 5.1.1
ASCII
DATASET UNSTRUCTURED_GRID
POINTS 516 double
0 0 0
0 0 1
0 1 1
0 1 0
50 0 0
50 0 1
50 1 1
50 1 0
0.390625 0 0
0.78125 0 0
1.171875 0 0
1.5625 0 0
1.953125 0 0
2.34375 0 0
2.734375 0 0
3.125 0 0
3.515625 0 0
3.90625 0 0
4.296875 0 0
4.6875 0 0
5.078125 0 0
5.46875 0 0
5.859375 0 0
6.25 0 0
6.640625 0 0
7.03125 0 0
7.421875 0 0
7.8125 0 0
8.203125 0 0
8.59375 0 0
8.984375 0 0
9.375 0 0
9.765625 0 0
10.15625 0 0
10.546875 0 0
10.9375 0 0
11.328125 0 0
11.71875 0 0
12.109375 0 0
12.5 0 0
12.890625 0 0
13.28125 0 0
13.671875 0 0
14.0625 0 0
14.453125 0 0
14.84375 0 0
15.234375 0 0
15.625 0 0
16.015625 0 0
16.40625 0 0
16.796875 0 0
17.1875 0 0
17.578125 0 0
17.96875 0 0
18.359375 0 0
18.75 0 0
19.140625 0 0
19.53125 0 0
19.921875 0 0
20.3125 0 0
20.703125 0 0
21.09375 0 0
21.484375 0 0
21.875 0 0
22.265625 0 0
22.65625 0 0
23.046875 0 0
23.4375 0 0
23.828125 0 0
24.21875 0 0
24.609375 0 0
25 0 0
25.390625 0 0
25.78125 0 0
26.171875 0 0
26.5625 0 0
26.953125 0 0
27.34375 0 0
27.734375 0 0
28.125 0 0
28.515625 0 0
28.90625 0 0
29.296875 0 0
29.6875 0 0
30.078125 0 0
30.46875 0 0
30.859375 0 0
31.25 0 0
31.640625 0 0
32.03125 0 0
32.421875 0 0
32.8125 0 0
33.203125 0 0
33.59375 0 0
33.984375 0 0
34.375 0 0
34.765625 0 0
35.15625 0 0
35.546875 0 0
35.9375 0 0
36.328125 0 0
36.71875 0 0
37.109375 0 0
37.5 0 0
37.890625 0 0
38.28125 0 0
38.671875 0 0
39.0625 0 0
39.453125 0 0
39.84375 0 0
40.234375 0 0
40.625 0 0
41.015625 0 0
41.40625 0 0
41.796875 0 0
42.1875 0 0
42.578125 0 0
42.96875 0 0
43.359375 0 0
43.75 0 0
44.140625 0 0
44.53125 0 0
44.921875 0 0
45.3125 0 0
45.703125 0 0
46.09375 0 0
46.484375 0 0
46.875 0 0
47.265625 0 0
47.65625 0 0
48.046875 0 0
48.4375 0 0
48.828125 0 0
49.21875 0 0
49.609375 0 0
0.390625 0 1
0.78125 0 1
1.171875 0 1
1.5625 0 1
1.953125 0 1
2.34375 0 1
2.734375 0 1
3.125 0 1
3.515625 0 1
3.90625 0 1
4.296875 0 1
4.6875 0 1
5.078125 0 1
5.46875 0 1
5.859375 0 1
6.25 0 1
6.640625 0 1
7.03125 0 1
7.421875 0 1
7.8125 0 1
8.203125 0 1
8.59375 0 1
8.984375 0 1
9.375 0 1
9.765625 0 1
10.15625 0 1
10.546875 0 1
10.9375 0 1
11.328125 0 1
11.71875 0 1
12.109375 0 1
12.5 0 1
12.890625 0 1
13.28125 0 1
13.671875 0 1
14.0625 0 1
14.453125 0 1
14.84375 0 1
15.234375 0 1
15.625 0 1
16.015625 0 1
16.40625 0 1
16.796875 0 1
17.1875 0 1
17.578125 0 1
17.96875 0 1
18.359375 0 1
18.75 0 1
19.140625 0 1
19.53125 0 1
19.921875 0 1
20.3125 0 1
20.703125 0 1
21.09375 0 1
21.484375 0 1
21.875 0 1
22.265625 0 1
22.65625 0 1
23.046875 0 1
23.4375 0 1
23.828125 0 1
24.21875 0 1
24.609375 0 1
25 0 1
25.390625 0 1
25.78125 0 1
26.171875 0 1
26.5625 0 1
26.953125 0 1
27.34375 0 1
27.734375 0 1
28.125 0 1
28.515625 0 1
28.90625 0 1
29.296875 0 1
29.6875 0 1
30.078125 0 1
30.46875 0 1
30.859375 0 1
31.25 0 1
31.640625 0 1
32.03125 0 1
32.421875 0 1
32.8125 0 1
33.203125 0 1
33.59375 0 1
33.984375 0 1
34.375 0 1
34.765625 0 1
35.15625 0 1
35.546875 0 1
35.9375 0 1
36.328125 0 1
36.71875 0 1
37.109375 0 1
37.5 0 1
37.890625 0 1
38.28125 0 1
38.671875 0 1
39.0625 0 1
39.453125 0 1
39.84375 0 1
40.234375 0 1
40.625 0 1
41.015625 0 1
41.40625 0 1
41.796875 0 1
42.1875 0 1
42.578125 0 1
42.96875 0 1
43.359375 0 1
43.75 0 1
44.140625 0 1
44.53125 0 1
44.921875 0 1
45.3125 0 1
45.703125 0 1
46.09375 0 1
46.484375 0 1
46.875 0 1
47.265625 0 1
47.65625 0 1
48.046875 0 1
48.4375 0 1
48.828125 0 1
49.21875 0 1
49.609375 0 1
0.390625 1 1
0.78125 1 1
1.171875 1 1
1.5625 1 1
1.953125 1 1
2.34375 1 1
2.734375 1 1
3.125 1 1
3.515625 1 1
3.90625 1 1
4.296875 1 1
4.6875 1 1
5.078125 1 1
5.46875 1 1
5.859375 1 1
6.25 1 1
6.640625 1 1
7.03125 1 1
7.421875 1 1
7.8125 1 1
8.203125 1 1
8.59375 1 1
8.984375 1 1
9.375 1 1
9.765625 1 1
10.15625 1 1
10.546875 1 1
10.9375 1 1
11.328125 1 1
11.71875 1 1
12.109375 1 1
12.5 1 1
12.890625 1 1
13.28125 1 1
13.671875 1 1
14.0625 1 1
14.453125 1 1
14.84375 1 1
15.234375 1 1
15.625 1 1
16.015625 1 1
16.40625 1 1
16.796875 1 1
17.1875 1 1
17.578125 1 1
17.96875 1 1
18.359375 1 1
18.75 1 1
19.140625 1 1
19.53125 1 1
19.921875 1 1
20.3125 1 1
20.703125 1 1
21.09375 1 1
21.484375 1 1
21.875 1 1
22.265625 1 1
22.65625 1 1
23.046875 1 1
23.4375 1 1
23.828125 1 1
24.21875 1 1
24.609375 1 1
25 1 1
25.390625 1 1
25.78125 1 1
26.171875 1 1
26.5625 1 1
26.953125 1 1
27.34375 1 1
27.734375 1 1
28.125 1 1
28.515625 1 1
28.90625 1 1
29.296875 1 1
29.6875 1 1
30.078125 1 1
30.46875 1 1
30.859375 1 1
31.25 1 1
31.640625 1 1
32.03125 1 1
32.421875 1 1
32.8125 1 1
33.203125 1 1
33.59375 1 1
33.984375 1 1
34.375 1 1
34.765625 1 1
35.15625 1 1
35.546875 1 1
35.9375 1 1
36.328125 1 1
36.71875 1 1
37.109375 1 1
37.5 1 1
37.890625 1 1
38.28125 1 1
38.671875 1 1
39.0625 1 1
39.453125 1 1
39.84375 1 1
40.234375 1 1
40.625 1 1
41.015625 1 1
41.40625 1 1
41.796875 1 1
42.1875 1 1
42.578125 1 1
42.96875 1 1
43.359375 1 1
43.75 1 1
44.140625 1 1
44.53125 1 1
44.921875 1 1
45.3125 1 1
45.703125 1 1
46.09375 1 1
46.484375 1 1
46.875 1 1
47.265625 1 1
47.65625 1 1
48.046875 1 1
48.4375 1 1
48.828125 1 1
49.21875 1 1
49.609375 1 1
0.390625 1 0
0.78125 1 0
1.171875 1 0
1.5625 1 0
1.953125 1 0
2.34375 1 0
2.734375 1 0
3.125 1 0
3.515625 1 0
3.90625 1 0
4.296875 1 0
4.6875 1 0
5.078125 1 0
5.46875 1 0
5.859375 1 0
6.25 1 0
6.640625 1 0
7.03125 1 0
7.421875 1 0
7.8125 1 0
8.203125 1 0
8.59375 1 0
8.984375 1 0
9.375 1 0
9.765625 1 0
10.15625 1 0
10.546875 1 0
10.9375 1 0
11.328125 1 0
11.71875 1 0
12.109375 1 0
12.5 1 0
12.890625 1 0
13.28125 1 0
13.671875 1 0
14.0625 1 0
14.453125 1 0
14.84375 1 0
15.234375 1 0
15.625 1 0
16.015625 1 0
16.40625 1 0
16.796875 1 0
17.1875 1 0
17.578125 1 0
17.96875 1 0
18.359375 1 0
18.75 1 0
19.140625 1 0
19.53125 1 0
19.921875 1 0
20.3125 1 0
20.703125 1 0
21.09375 1 0
21.484375 1 0
21.875 1 0
22.265625 1 0
22.65625 1 0
23.046875 1 0
23.4375 1 0
23.828125 1 0
24.21875 1 0
24.609375 1 0
25 1 0
25.390625 1 0
25.78125 1 0
26.171875 1 0
26.5625 1 0
26.953125 1 0
27.34375 1 0
27.734375 1 0
28.125 1 0
28.515625 1 0
28.90625 1 0
29.296875 1 0
29.6875 1 0
30.078125 1 0
30.46875 1 0
30.859375 1 0
31.25 1 0
31.640625 1 0
32.03125 1 0
32.421875 1 0
32.8125 1 0
33.203125 1 0
33.59375 1 0
33.984375 1 0
34.375 1 0
34.765625 1 0
35.15625 1 0
35.546875 1 0
35.9375 1 0
36.328125 1 0
36.71875 1 0
37.109375 1 0
37.5 1 0
37.890625 1 0
38.28125 1 0
38.671875 1 0
39.0625 1 0
39.453125 1 0
39.84375 1 0
40.234375 1 0
40.625 1 0
41.015625 1 0
41.40625 1 0
41.796875 1 0
42.1875 1 0
42.578125 1 0
42.96875 1 0
43.359375 1 0
43.75 1 0
44.140625 1 0
44.53125 1 0
44.921875 1 0
45.3125 1 0
45.703125 1 0
46.09375 1 0
46.484375 1 0
46.875 1 0
47.265625 1 0
47.65625 1 0
48.046875 1 0
48.4375 1 0
48.828125 1 0
49.21875 1 0
49.609375 1 0
CELLS 128 1152
8 2 1 0 3 262 135 8 389
8 262 135 8 389 263 136 9 390
8 263 136 9 390 264 137 10 391
8 264 137 10 391 265 138 11 392
8 265 138 11 392 266 139 12 393
8 266 139 12 393 267 140 13 394
8 267 140 13 394 268 141 14 395
8 268 141 14 395 269 142 15 396
8 269 142 15 396 270 143 16 397
8 270 143 16 397 271 144 17 398
8 271 144 17 398 272 145 18 399
8 272 145 18 399 273 146 19 400
8 273 146 19 400 274 147 20 401
8 274 147 20 401 275 148 21 402
8 275 148 21 402 276 149 22 403
8 276 149 22 403 277 150 23 404
8 277 150 23 404 278 151 24 405
8 278 151 24 405 279 152 25 406
8 279 152 25 406 280 153 26 407
8 280 153 26 407 281 154 27 408
8 281 154 27 408 282 155 28 409
8 282 155 28 409 283 156 29 410
8 283 156 29 410 284 157 30 411
8 284 157 30 411 285 158 31 412
8 285 158 31 412 286 159 32 413
8 286 159 32 413 287 160 33 414
8 287 160 33 414 288 161 34 415
8 288 161 34 415 289 162 35 416
8 289 162 35 416 290 163 36 417
8 290 163 36 417 291 164 37 418
8 291 164 37 418 292 165 38 419
8 292 165 38 419 293 166 39 420
8 293 166 39 420 294 167 40 421
8 294 167 40 421 295 168 41 422
8 295 168 41 422 296 169 42 423
8 296 169 42 423 297 170 43 424
8 297 170 43 424 298 171 44 425
8 298 171 44 425 299 172 45 426
8 299 172 45 426 300 173 46 427
8 300 173 46 427 301 174 47 428
8 301 174 47 428 302 175 48 429
8 302 175 48 429 303 176 49 430
8 303 176 49 430 304 177 50 431
8 304 177 50 431 305 178 51 432
8 305 178 51 432 306 179 52 433
8 306 179 52 433 307 180 53 434
8 307 180 53 434 308 181 54 435
8 308 181 54 435 309 182 55 436
8 309 182 55 436 310 183 56 437
8 310 183 56 437 311 184 57 438
8 311 184 57 438 312 185 58 439
8 312 185 58 439 313 186 59 440
8 313 186 59 440 314 187 60 441
8 314 187 60 441 315 188 61 442
8 315 188 61 442 316 189 62 443
8 316 189 62 443 317 190 63 444
8 317 190 63 444 318 191 64 445
8 318 191 64 445 319 192 65 446
8 319 192 65 446 320 193 66 447
8 320 193 66 447 321 194 67 448
8 321 194 67 448 322 195 68 449
8 322 195 68 449 323 196 69 450
8 323 196 69 450 324 197 70 451
8 324 197 70 451 325 198 71 452
8 325 198 71 452 326 199 72 453
8 326 199 72 453 327 200 73 454
8 327 200 73 454 328 201 74 455
8 328 201 74 455 329 202 75 456
8 329 202 75 456 330 203 76 457
8 330 203 76 457 331 204 77 458
8 331 204 77 458 332 205 78 459
8 332 205 78 459 333 206 79 460
8 333 206 79 460 334 207 80 461
8 334 207 80 461 335 208 81 462
8 335 208 81 462 336 209 82 463
8 336 209 82 463 337 210 83 464
8 337 210 83 464 338 211 84 465
8 338 211 84 465 339 212 85 466
8 339 212 85 466 340 213 86 467
8 340 213 86 467 341 214 87 468
8 341 214 87 468 342 215 88 469
8 342 215 88 469 343 216 89 470
8 343 216 89 470 344 217 90 471
8 344 217 90 471 345 218 91 472
8 345 218 91 472 346 219 92 473
8 346 219 92 473 347 220 93 474
8 347 220 93 474 348 221 94 475
8 348 221 94 475 349 222 95 476
8 349 222 95 476 350 223 96 477
8 350 223 96 477 351 224 97 478
8 351 224 97 478 352 225 98 479
8 352 225 98 479 353 226 99 480
8 353 226 99 480 354 227 100 481
8 354 227 100 481 355 228 101 482
8 355 228 101 482 356 229 102 483
8 356 229 102 483 357 230 103 484
8 357 230 103 484 358 231 104 485
8 358 231 104 485 359 232 105 486
8 359 232 105 486 360 233 106 487
8 360 233 106 487 361 234 107 488
8 361 234 107 488 362 235 108 489
8 362 235 108 489 363 236 109 490
8 363 236 109 490 364 237 110 491
8 364 237 110 491 365 238 111 492
8 365 238 111 492 366 239 112 493
8 366 239 112 493 367 240 113 494
8 367 240 113 494 368 241 114 495
8 368 241 114 495 369 242 115 496
8 369 242 115 496 370 243 116 497
8 370 243 116 497 371 244 117 498
8 371 244 117 498 372 245 118 499
8 372 245 118 499 373 246 119 500
8 373 246 119 500 374 247 120 501
8 374 247 120 501 375 248 121 502
8 375 248 121 502 376 249 122 503
8 376 249 122 503 377 250 123 504
8 377 250 123 504 378 251 124 505
8 378 251 124 505 379 252 125 506
8 379 252 125 506 380 253 126 507
8 380 253 126 507 381 254 127 508
8 381 254 127 508 382 255 128 509
8 382 255 128 509 383 256 129 510
8 383 256 129 510 384 257 130 511
8 384 257 130 511 385 258 131 512
8 385 258 131 512 386 259 132 513
8 386 259 132 513 387 260 133 514
8 387 260 133 514 388 261 134 515
8 388 261 134 515 6 5 4 7
CELL_TYPES 128
12
12
12
12
12
12
12
12
12
12
12
12
12
12
12
12
12
12
12
12
12
12
12
12
12
12
12
12
12
12
12
12
12
12
12
12
12
12
12
12
12
12
12
12
12
12
12
12
12
12
12
12
12
12
12
12
12
12
12
12
12
12
12
12
12
12
12
12
12
12
12
12
12
12
12
12
12
12
12
12
12
12
12
12
12
12
12
12
12
12
12
12
12
12
12
12
12
12
12
12
12
12
12
12
12
12
12
12
12
12
12
12
12
12
12
12
12
12
12
12
12
12
12
12
12
12
12
12
POINT_DATA 516
SCALARS GLOBAL_ID int 1
LOOKUP_TABLE default
0 
1 
2 
3 
4 
5 
6 
7 
8 
9 
10 
11 
12 
13 
14 
15 
16 
17 
18 
19 
20 
21 
22 
23 
24 
25 
26 
27 
28 
29 
30 
31 
32 
33 
34 
35 
36 
37 
38 
39 
40 
41 
42 
43 
44 
45 
46 
47 
48 
49 
50 
51 
52 
53 
54 
55 
56 
57 
58 
59 
60 
61 
62 
63 
64 
65 
66 
67 
68 
69 
70 
71 
72 
73 
74 
75 
76 
77 
78 
79 
80 
81 
82 
83 
84 
85 
86 
87 
88 
89 
90 
91 
92 
93 
94 
95 
96 
97 
98 
99 
100 
101 
102 
103 
104 
105 
106 
107 
108 
109 
110 
111 
112 
113 
114 
115 
116 
117 
118 
119 
120 
121 
122 
123 
124 
125 
126 
127 
128 
129 
130 
131 
132 
133 
134 
135 
136 
137 
138 
139 
140 
141 
142 
143 
144 
145 
146 
147 
148 
149 
150 
151 
152 
153 
154 
155 
156 
157 
158 
159 
160 
161 
162 
163 
164 
165 
166 
167 
168 
169 
170 
171 
172 
173 
174 
175 
176 
177 
178 
179 
180 
181 
182 
183 
184 
185 
186 
187 
188 
189 
190 
191 
192 
193 
194 
195 
196 
197 
198 
199 
200 
201 
202 
203 
204 
205 
206 
207 
208 
209 
210 
211 
212 
213 
214 
215 
216 
217 
218 
219 
220 
221 
222 
223 
224 
225 
226 
227 
228 
229 
230 
231 
232 
233 
234 
235 
236 
237 
238 
239 
240 
241 
242 
243 
244 
245 
246 
247 
248 
249 
250 
251 
252 
253 
254 
255 
256 
257 
258 
259 
260 
261 
262 
263 
264 
265 
266 
267 
268 
269 
270 
271 
272 
273 
274 
275 
276 
277 
278 
279 
280 
281 
282 
283 
284 
285 
286 
287 
288 
289 
290 
291 
292 
293 
294 
295 
296 
297 
298 
299 
300 
301 
302 
303 
304 
305 
306 
307 
308 
309 
310 
311 
312 
313 
314 
315 
316 
317 
318 
319 
320 
321 
322 
323 
324 
325 
326 
327 
328 
329 
330 
331 
332 
333 
334 
335 
336 
337 
338 
339 
340 
341 
342 
343 
344 
345 
346 
347 
348 
349 
350 
351 
352 
353 
354 
355 
356 
357 
358 
359 
360 
361 
362 
363 
364 
365 
366 
367 
368 
369 
370 
371 
372 
373 
374 
375 
376 
377 
378 
379 
380 
381 
382 
383 
384 
385 
386 
387 
388 
389 
390 
391 
392 
393 
394 
395 
396 
397 
398 
399 
400 
401 
402 
403 
404 
405 
406 
407 
408 
409 
410 
411 
412 
413 
414 
415 
416 
417 
418 
419 
420 
421 
422 
423 
424 
425 
426 
427 
428 
429 
430 
431 
432 
433 
434 
435 
436 
437 
438 
439 
440 
441 
442 
443 
444 
445 
446 
447 
448 
449 
450 
451 
452 
453 
454 
455 
456 
457 
458 
459 
460 
461 
462 
463 
464 
465 
466 
467 
468 
469 
470 
471 
472 
473 
474 
475 
476 
477 
478 
479 
480 
481 
482 
483 
484 
485 
486 
487 
488 
489 
490 
491 
492 
493 
494 
495 
496 
497 
498 
499 
500 
501 
502 
503 
504 
505 
506 
507 
508 
509 
510 
511 
512 
513 
514 
515 
VECTORS NODES double
0 0 0 
0 0 1 
0 1 1 
0 1 0 
50 0 0 
50 0 1 
50 1 1 
50 1 0 
0.390625 0 0 
0.78125 0 0 
1.171875 0 0 
1.5625 0 0 
1.953125 0 0 
2.34375 0 0 
2.734375 0 0 
3.125 0 0 
3.515625 0 0 
3.90625 0 0 
4.296875 0 0 
4.6875 0 0 
5.078125 0 0 
5.46875 0 0 
5.859375 0 0 
6.25 0 0 
6.640625 0 0 
7.03125 0 0 
7.421875 0 0 
7.8125 0 0 
8.203125 0 0 
8.59375 0 0 
8.984375 0 0 
9.375 0 0 
9.765625 0 0 
10.15625 0 0 
10.546875 0 0 
10.9375 0 0 
11.328125 0 0 
11.71875 0 0 
12.109375 0 0 
12.5 0 0 
12.890625 0 0 
13.28125 0 0 
13.671875 0 0 
14.0625 0 0 
14.453125 0 0 
14.84375 0 0 
15.234375 0 0 
15.625 0 0 
16.015625 0 0 
16.40625 0 0 
16.796875 0 0 
17.1875 0 0 
17.578125 0 0 
17.96875 0 0 
18.359375 0 0 
18.75 0 0 
19.140625 0 0 
19.53125 0 0 
19.921875 0 0 
20.3125 0 0 
20.703125 0 0 
21.09375 0 0 
21.484375 0 0 
21.875 0 0 
22.265625 0 0 
22.65625 0 0 
23.046875 0 0 
23.4375 0 0 
23.828125 0 0 
24.21875 0 0 
24.609375 0 0 
25 0 0 
25.390625 0 0 
25.78125 0 0 
26.171875 0 0 
26.5625 0 0 
26.953125 0 0 
27.34375 0 0 
27.734375 0 0 
28.125 0 0 
28.515625 0 0 
28.90625 0 0 
29.296875 0 0 
29.6875 0 0 
30.078125 0 0 
30.46875 0 0 
30.859375 0 0 
31.25 0 0 
31.640625 0 0 
32.03125 0 0 
32.421875 0 0 
32.8125 0 0 
33.203125 0 0 
33.59375 0 0 
33.984375 0 0 
34.375 0 0 
34.765625 0 0 
35.15625 0 0 
35.546875 0 0 
35.9375 0 0 
36.328125 0 0 
36.71875 0 0 
37.109375 0 0 
37.5 0 0 
37.890625 0 0 
38.28125 0 0 
38.671875 0 0 
39.0625 0 0 
39.453125 0 0 
39.84375 0 0 
40.234375 0 0 
40.625 0 0 
41.015625 0 0 
41.40625 0 0 
41.796875 0 0 
42.1875 0 0 
42.578125 0 0 
42.96875 0 0 
43.359375 0 0 
43.75 0 0 
44.140625 0 0 
44.53125 0 0 
44.921875 0 0 
45.3125 0 0 
45.703125 0 0 
46.09375 0 0 
46.484375 0 0 
46.875 0 0 
47.265625 0 0 
47.65625 0 0 
48.046875 0 0 
48.4375 0 0 
48.828125 0 0 
49.21875 0 0 
49.609375 0 0 
0.390625 0 1 
0.78125 0 1 
1.171875 0 1 
1.5625 0 1 
1.953125 0 1 
2.34375 0 1 
2.734375 0 1 
3.125 0 1 
3.515625 0 1 
3.90625 0 1 
4.296875 0 1 
4.6875 0 1 
5.078125 0 1 
5.46875 0 1 
5.859375 0 1 
6.25 0 1 
6.640625 0 1 
7.03125 0 1 
7.421875 0 1 
7.8125 0 1 
8.203125 0 1 
8.59375 0 1 
8.984375 0 1 
9.375 0 1 
9.765625 0 1 
10.15625 0 1 
10.546875 0 1 
10.9375 0 1 
11.328125 0 1 
11.71875 0 1 
12.109375 0 1 
12.5 0 1 
12.890625 0 1 
13.28125 0 1 
13.671875 0 1 
14.0625 0 1 
14.453125 0 1 
14.84375 0 1 
15.234375 0 1 
15.625 0 1 
16.015625 0 1 
16.40625 0 1 
16.796875 0 1 
17.1875 0 1 
17.578125 0 1 
17.96875 0 1 
18.359375 0 1 
18.75 0 1 
19.140625 0 1 
19.53125 0 1 
19.921875 0 1 
20.3125 0 1 
20.703125 0 1 
21.09375 0 1 
21.484375 0 1 
21.875 0 1 
22.265625 0 1 
22.65625 0 1 
23.046875 0 1 
23.4375 0 1 
23.828125 0 1 
24.21875 0 1 
24.609375 0 1 
25 0 1 
25.390625 0 1 
25.78125 0 1 
26.171875 0 1 
26.5625 0 1 
26.953125 0 1 
27.34375 0 1 
27.734375 0 1 
28.125 0 1 
28.515625 0 1 
28.90625 0 1 
29.296875 0 1 
29.6875 0 1 
30.078125 0 1 
30.46875 0 1 
30.859375 0 1 
31.25 0 1 
31.640625 0 1 
32.03125 0 1 
32.421875 0 1 
32.8125 0 1 
33.203125 0 1 
33.59375 0 1 
33.984375 0 1 
34.375 0 1 
34.765625 0 1 
35.15625 0 1 
35.546875 0 1 
35.9375 0 1 
36.328125 0 1 
36.71875 0 1 
37.109375 0 1 
37.5 0 1 
37.890625 0 1 
38.28125 0 1 
38.671875 0 1 
39.0625 0 1 
39.453125 0 1 
39.84375 0 1 
40.234375 0 1 
40.625 0 1 
41.015625 0 1 
41.40625 0 1 
41.796875 0 1 
42.1875 0 1 
42.578125 0 1 
42.96875 0 1 
43.359375 0 1 
43.75 0 1 
44.140625 0 1 
44.53125 0 1 
44.921875 0 1 
45.3125 0 1 
45.703125 0 1 
46.09375 0 1 
46.484375 0 1 
46.875 0 1 
47.265625 0 1 
47.65625 0 1 
48.046875 0 1 
48.4375 0 1 
48.828125 0 1 
49.21875 0 1 
49.609375 0 1 
0.390625 1 1 
0.78125 1 1 
1.171875 1 1 
1.5625 1 1 
1.953125 1 1 
2.34375 1 1 
2.734375 1 1 
3.125 1 1 
3.515625 1 1 
3.90625 1 1 
4.296875 1 1 
4.6875 1 1 
5.078125 1 1 
5.46875 1 1 
5.859375 1 1 
6.25 1 1 
6.640625 1 1 
7.03125 1 1 
7.421875 1 1 
7.8125 1 1 
8.203125 1 1 
8.59375 1 1 
8.984375 1 1 
9.375 1 1 
9.765625 1 1 
10.15625 1 1 
10.546875 1 1 
10.9375 1 1 
11.328125 1 1 
11.71875 1 1 
12.109375 1 1 
12.5 1 1 
12.890625 1 1 
13.28125 1 1 
13.671875 1 1 
14.0625 1 1 
14.453125 1 1 
14.84375 1 1 
15.234375 1 1 
15.625 1 1 
16.015625 1 1 
16.40625 1 1 
16.796875 1 1 
17.1875 1 1 
17.578125 1 1 
17.96875 1 1 
18.359375 1 1 
18.75 1 1 
19.140625 1 1 
19.53125 1 1 
19.921875 1 1 
20.3125 1 1 
20.703125 1 1 
21.09375 1 1 
21.484375 1 1 
21.875 1 1 
22.265625 1 1 
22.65625 1 1 
23.046875 1 1 
23.4375 1 1 
23.828125 1 1 
24.21875 1 1 
24.609375 1 1 
25 1 1 
25.390625 1 1 
25.78125 1 1 
26.171875 1 1 
26.5625 1 1 
26.953125 1 1 
27.34375 1 1 
27.734375 1 1 
28.125 1 1 
28.515625 1 1 
28.90625 1 1 
29.296875 1 1 
29.6875 1 1 
30.078125 1 1 
30.46875 1 1 
30.859375 1 1 
31.25 1 1 
31.640625 1 1 
32.03125 1 1 
32.421875 1 1 
32.8125 1 1 
33.203125 1 1 
33.59375 1 1 
33.984375 1 1 
34.375 1 1 
34.765625 1 1 
35.15625 1 1 
35.546875 1 1 
35.9375 1 1 
36.328125 1 1 
36.71875 1 1 
37.109375 1 1 
37.5 1 1 
37.890625 1 1 
38.28125 1 1 
38.671875 1 1 
39.0625 1 1 
39.453125 1 1 
39.84375 1 1 
40.234375 1 1 
40.625 1 1 
41.015625 1 1 
41.40625 1 1 
41.796875 1 1 
42.1875 1 1 
42.578125 1 1 
42.96875 1 1 
43.359375 1 1 
43.75 1 1 
44.140625 1 1 
44.53125 1 1 
44.921875 1 1 
45.3125 1 1 
45.703125 1 1 
46.09375 1 1 
46.484375 1 1 
46.875 1 1 
47.265625 1 1 
47.65625 1 1 
48.046875 1 1 
48.4375 1 1 
48.828125 1 1 
49.21875 1 1 
49.609375 1 1 
0.390625 1 0 
0.78125 1 0 
1.171875 1 0 
1.5625 1 0 
1.953125 1 0 
2.34375 1 0 
2.734375 1 0 
3.125 1 0 
3.515625 1 0 
3.90625 1 0 
4.296875 1 0 
4.6875 1 0 
5.078125 1 0 
5.46875 1 0 
5.859375 1 0 
6.25 1 0 
6.640625 1 0 
7.03125 1 0 
7.421875 1 0 
7.8125 1 0 
8.203125 1 0 
8.59375 1 0 
8.984375 1 0 
9.375 1 0 
9.765625 1 0 
10.15625 1 0 
10.546875 1 0 
10.9375 1 0 
11.328125 1 0 
11.71875 1 0 
12.109375 1 0 
12.5 1 0 
12.890625 1 0 
13.28125 1 0 
13.671875 1 0 
14.0625 1 0 
14.453125 1 0 
14.84375 1 0 
15.234375 1 0 
15.625 1 0 
16.015625 1 0 
16.40625 1 0 
16.796875 1 0 
17.1875 1 0 
17.578125 1 0 
17.96875 1 0 
18.359375 1 0 
18.75 1 0 
19.140625 1 0 
19.53125 1 0 
19.921875 1 0 
20.3125 1 0 
20.703125 1 0 
21.09375 1 0 
21.484375 1 0 
21.875 1 0 
22.265625 1 0 
22.65625 1 0 
23.046875 1 0 
23.4375 1 0 
23.828125 1 0 
24.21875 1 0 
24.609375 1 0 
25 1 0 
25.390625 1 0 
25.78125 1 0 
26.171875 1 0 
26.5625 1 0 
26.953125 1 0 
27.34375 1 0 
27.734375 1 0 
28.125 1 0 
28.515625 1 0 
28.90625 1 0 
29.296875 1 0 
29.6875 1 0 
30.078125 1 0 
30.46875 1 0 
30.859375 1 0 
31.25 1 0 
31.640625 1 0 
32.03125 1 0 
32.421875 1 0 
32.8125 1 0 
33.203125 1 0 
33.59375 1 0 
33.984375 1 0 
34.375 1 0 
34.765625 1 0 
35.15625 1 0 
35.546875 1 0 
35.9375 1 0 
36.328125 1 0 
36.71875 1 0 
37.109375 1 0 
37.5 1 0 
37.890625 1 0 
38.28125 1 0 
38.671875 1 0 
39.0625 1 0 
39.453125 1 0 
39.84375 1 0 
40.234375 1 0 
40.625 1 0 
41.015625 1 0 
41.40625 1 0 
41.796875 1 0 
42.1875 1 0 
42.578125 1 0 
42.96875 1 0 
43.359375 1 0 
43.75 1 0 
44.140625 1 0 
44.53125 1 0 
44.921875 1 0 
45.3125 1 0 
45.703125 1 0 
46.09375 1 0 
46.484375 1 0 
46.875 1 0 
47.265625 1 0 
47.65625 1 0 
48.046875 1 0 
48.4375 1 0 
48.828125 1 0 
49.21875 1 0 
49.609375 1 0 
VECTORS centroid_nodes double
0 0 0 
0 0 1 
0 1 1 
0 1 0 
50 0 0 
50 0 1 
50 1 1 
50 1 0 
0.390625 0 0 
0.78125 0 0 
1.171875 0 0 
1.5625 0 0 
1.953125 0 0 
2.34375 0 0 
2.734375 0 0 
3.125 0 0 
3.515625 0 0 
3.90625 0 0 
4.296875 0 0 
4.6875 0 0 
5.078125 0 0 
5.46875 0 0 
5.859375 0 0 
6.25 0 0 
6.640625 0 0 
7.03125 0 0 
7.421875 0 0 
7.8125 0 0 
8.203125 0 0 
8.59375 0 0 
8.984375 0 0 
9.375 0 0 
9.765625 0 0 
10.15625 0 0 
10.546875 0 0 
10.9375 0 0 
11.328125 0 0 
11.71875 0 0 
12.109375 0 0 
12.5 0 0 
12.890625 0 0 
13.28125 0 0 
13.671875 0 0 
14.0625 0 0 
14.453125 0 0 
14.84375 0 0 
15.234375 0 0 
15.625 0 0 
16.015625 0 0 
16.40625 0 0 
16.796875 0 0 
17.1875 0 0 
17.578125 0 0 
17.96875 0 0 
18.359375 0 0 
18.75 0 0 
19.140625 0 0 
19.53125 0 0 
19.921875 0 0 
20.3125 0 0 
20.703125 0 0 
21.09375 0 0 
21.484375 0 0 
21.875 0 0 
22.265625 0 0 
22.65625 0 0 
23.046875 0 0 
23.4375 0 0 
23.828125 0 0 
24.21875 0 0 
24.609375 0 0 
25 0 0 
25.390625 0 0 
25.78125 0 0 
26.171875 0 0 
26.5625 0 0 
26.953125 0 0 
27.34375 0 0 
27.734375 0 0 
28.125 0 0 
28.515625 0 0 
28.90625 0 0 
29.296875 0 0 
29.6875 0 0 
30.078125 0 0 
30.46875 0 0 
30.859375 0 0 
31.25 0 0 
31.640625 0 0 
32.03125 0 0 
32.421875 0 0 
32.8125 0 0 
33.203125 0 0 
33.59375 0 0 
33.984375 0 0 
34.375 0 0 
34.765625 0 0 
35.15625 0 0 
35.546875 0 0 
35.9375 0 0 
36.328125 0 0 
36.71875 0 0 
37.109375 0 0 
37.5 0 0 
37.890625 0 0 
38.28125 0 0 
38.671875 0 0 
39.0625 0 0 
39.453125 0 0 
39.84375 0 0 
40.234375 0 0 
40.625 0 0 
41.015625 0 0 
41.40625 0 0 
41.796875 0 0 
42.1875 0 0 
42.578125 0 0 
42.96875 0 0 
43.359375 0 0 
43.75 0 0 
44.140625 0 0 
44.53125 0 0 
44.921875 0 0 
45.3125 0 0 
45.703125 0 0 
46.09375 0 0 
46.484375 0 0 
46.875 0 0 
47.265625 0 0 
47.65625 0 0 
48.046875 0 0 
48.4375 0 0 
48.828125 0 0 
49.21875 0 0 
49.609375 0 0 
0.390625 0 1 
0.78125 0 1 
1.171875 0 1 
1.5625 0 1 
1.953125 0 1 
2.34375 0 1 
2.734375 0 1 
3.125 0 1 
3.515625 0 1 
3.90625 0 1 
4.296875 0 1 
4.6875 0 1 
5.078125 0 1 
5.46875 0 1 
5.859375 0 1 
6.25 0 1 
6.640625 0 1 
7.03125 0 1 
7.421875 0 1 
7.8125 0 1 
8.203125 0 1 
8.59375 0 1 
8.984375 0 1 
9.375 0 1 
9.765625 0 1 
10.15625 0 1 
10.546875 0 1 
10.9375 0 1 
11.328125 0 1 
11.71875 0 1 
12.109375 0 1 
12.5 0 1 
12.890625 0 1 
13.28125 0 1 
13.671875 0 1 
14.0625 0 1 
14.453125 0 1 
14.84375 0 1 
15.234375 0 1 
15.625 0 1 
16.015625 0 1 
16.40625 0 1 
16.796875 0 1 
17.1875 0 1 
17.578125 0 1 
17.96875 0 1 
18.359375 0 1 
18.75 0 1 
19.140625 0 1 
19.53125 0 1 
19.921875 0 1 
20.3125 0 1 
20.703125 0 1 
21.09375 0 1 
21.484375 0 1 
21.875 0 1 
22.265625 0 1 
22.65625 0 1 
23.046875 0 1 
23.4375 0 1 
23.828125 0 1 
24.21875 0 1 
24.609375 0 1 
25 0 1 
25.390625 0 1 
25.78125 0 1 
26.171875 0 1 
26.5625 0 1 
26.953125 0 1 
27.34375 0 1 
27.734375 0 1 
28.125 0 1 
28.515625 0 1 
28.90625 0 1 
29.296875 0 1 
29.6875 0 1 
30.078125 0 1 
30.46875 0 1 
30.859375 0 1 
31.25 0 1 
31.640625 0 1 
32.03125 0 1 
32.421875 0 1 
32.8125 0 1 
33.203125 0 1 
33.59375 0 1 
33.984375 0 1 
34.375 0 1 
34.765625 0 1 
35.15625 0 1 
35.546875 0 1 
35.9375 0 1 
36.328125 0 1 
36.71875 0 1 
37.109375 0 1 
37.5 0 1 
37.890625 0 1 
38.28125 0 1 
38.671875 0 1 
39.0625 0 1 
39.453125 0 1 
39.84375 0 1 
40.234375 0 1 
40.625 0 1 
41.015625 0 1 
41.40625 0 1 
41.796875 0 1 
42.1875 0 1 
42.578125 0 1 
42.96875 0 1 
43.359375 0 1 
43.75 0 1 
44.140625 0 1 
44.53125 0 1 
44.921875 0 1 
45.3125 0 1 
45.703125 0 1 
46.09375 0 1 
46.484375 0 1 
46.875 0 1 
47.265625 0 1 
47.65625 0 1 
48.046875 0 1 
48.4375 0 1 
48.828125 0 1 
49.21875 0 1 
49.609375 0 1 
0.390625 1 1 
0.78125 1 1 
1.171875 1 1 
1.5625 1 1 
1.953125 1 1 
2.34375 1 1 
2.734375 1 1 
3.125 1 1 
3.515625 1 1 
3.90625 1 1 
4.296875 1 1 
4.6875 1 1 
5.078125 1 1 
5.46875 1 1 
5.859375 1 1 
6.25 1 1 
6.640625 1 1 
7.03125 1 1 
7.421875 1 1 
7.8125 1 1 
8.203125 1 1 
8.59375 1 1 
8.984375 1 1 
9.375 1 1 
9.765625 1 1 
10.15625 1 1 
10.546875 1 1 
10.9375 1 1 
11.328125 1 1 
11.71875 1 1 
12.109375 1 1 
12.5 1 1 
12.890625 1 1 
13.28125 1 1 
13.671875 1 1 
14.0625 1 1 
14.453125 1 1 
14.84375 1 1 
15.234375 1 1 
15.625 1 1 
16.015625 1 1 
16.40625 1 1 
16.796875 1 1 
17.1875 1 1 
17.578125 1 1 
17.96875 1 1 
18.359375 1 1 
18.75 1 1 
19.140625 1 1 
19.53125 1 1 
19.921875 1 1 
20.3125 1 1 
20.703125 1 1 
21.09375 1 1 
21.484375 1 1 
21.875 1 1 
22.265625 1 1 
22.65625 1 1 
23.046875 1 1 
23.4375 1 1 
23.828125 1 1 
24.21875 1 1 
24.609375 1 1 
25 1 1 
25.390625 1 1 
25.78125 1 1 
26.171875 1 1 
26.5625 1 1 
26.953125 1 1 
27.34375 1 1 
27.734375 1 1 
28.125 1 1 
28.515625 1 1 
28.90625 1 1 
29.296875 1 1 
29.6875 1 1 
30.078125 1 1 
30.46875 1 1 
30.859375 1 1 
31.25 1 1 
31.640625 1 1 
32.03125 1 1 
32.421875 1 1 
32.8125 1 1 
33.203125 1 1 
33.59375 1 1 
33.984375 1 1 
34.375 1 1 
34.765625 1 1 
35.15625 1 1 
35.546875 1 1 
35.9375 1 1 
36.328125 1 1 
36.71875 1 1 
37.109375 1 1 
37.5 1 1 
37.890625 1 1 
38.28125 1 1 
38.671875 1 1 
39.0625 1 1 
39.453125 1 1 
39.84375 1 1 
40.234375 1 1 
40.625 1 1 
41.015625 1 1 
41.40625 1 1 
41.796875 1 1 
42.1875 1 1 
42.578125 1 1 
42.96875 1 1 
43.359375 1 1 
43.75 1 1 
44.140625 1 1 
44.53125 1 1 
44.921875 1 1 
45.3125 1 1 
45.703125 1 1 
46.09375 1 1 
46.484375 1 1 
46.875 1 1 
47.265625 1 1 
47.65625 1 1 
48.046875 1 1 
48.4375 1 1 
48.828125 1 1 
49.21875 1 1 
49.609375 1 1 
0.390625 1 0 
0.78125 1 0 
1.171875 1 0 
1.5625 1 0 
1.953125 1 0 
2.34375 1 0 
2.734375 1 0 
3.125 1 0 
3.515625 1 0 
3.90625 1 0 
4.296875 1 0 
4.6875 1 0 
5.078125 1 0 
5.46875 1 0 
5.859375 1 0 
6.25 1 0 
6.640625 1 0 
7.03125 1 0 
7.421875 1 0 
7.8125 1 0 
8.203125 1 0 
8.59375 1 0 
8.984375 1 0 
9.375 1 0 
9.765625 1 0 
10.15625 1 0 
10.546875 1 0 
10.9375 1 0 
11.328125 1 0 
11.71875 1 0 
12.109375 1 0 
12.5 1 0 
12.890625 1 0 
13.28125 1 0 
13.671875 1 0 
14.0625 1 0 
14.453125 1 0 
14.84375 1 0 
15.234375 1 0 
15.625 1 0 
16.015625 1 0 
16.40625 1 0 
16.796875 1 0 
17.1875 1 0 
17.578125 1 0 
17.96875 1 0 
18.359375 1 0 
18.75 1 0 
19.140625 1 0 
19.53125 1 0 
19.921875 1 0 
20.3125 1 0 
20.703125 1 0 
21.09375 1 0 
21.484375 1 0 
21.875 1 0 
22.265625 1 0 
22.65625 1 0 
23.046875 1 0 
23.4375 1 0 
23.828125 1 0 
24.21875 1 0 
24.609375 1 0 
25 1 0 
25.390625 1 0 
25.78125 1 0 
26.171875 1 0 
26.5625 1 0 
26.953125 1 0 
27.34375 1 0 
27.734375 1 0 
28.125 1 0 
28.515625 1 0 
28.90625 1 0 
29.296875 1 0 
29.6875 1 0 
30.078125 1 0 
30.46875 1 0 
30.859375 1 0 
31.25 1 0 
31.640625 1 0 
32.03125 1 0 
32.421875 1 0 
32.8125 1 0 
33.203125 1 0 
33.59375 1 0 
33.984375 1 0 
34.375 1 0 
34.765625 1 0 
35.15625 1 0 
35.546875 1 0 
35.9375 1 0 
36.328125 1 0 
36.71875 1 0 
37.109375 1 0 
37.5 1 0 
37.890625 1 0 
38.28125 1 0 
38.671875 1 0 
39.0625 1 0 
39.453125 1 0 
39.84375 1 0 
40.234375 1 0 
40.625 1 0 
41.015625 1 0 
41.40625 1 0 
41.796875 1 0 
42.1875 1 0 
42.578125 1 0 
42.96875 1 0 
43.359375 1 0 
43.75 1 0 
44.140625 1 0 
44.53125 1 0 
44.921875 1 0 
45.3125 1 0 
45.703125 1 0 
46.09375 1 0 
46.484375 1 0 
46.875 1 0 
47.265625 1 0 
47.65625 1 0 
48.046875 1 0 
48.4375 1 0 
48.828125 1 0 
49.21875 1 0 
49.609375 1 0 
CELL_DATA 128
SCALARS GLOBAL_ID int 1
LOOKUP_TABLE default
0 
1 
2 
3 
4 
5 
6 
7 
8 
9 
10 
11 
12 
13 
14 
15 
16 
17 
18 
19 
20 
21 
22 
23 
24 
25 
26 
27 
28 
29 
30 
31 
32 
33 
34 
35 
36 
37 
38 
39 
40 
41 
42 
43 
44 
45 
46 
47 
48 
49 
50 
51 
52 
53 
54 
55 
56 
57 
58 
59 
60 
61 
62 
63 
64 
65 
66 
67 
68 
69 
70 
71 
72 
73 
74 
75 
76 
77 
78 
79 
80 
81 
82 
83 
84 
85 
86 
87 
88 
89 
90 
91 
92 
93 
94 
95 
96 
97 
98 
99 
100 
101 
102 
103 
104 
105 
106 
107 
108 
109 
110 
111 
112 
113 
114 
115 
116 
117 
118 
119 
120 
121 
122 
123 
124 
125 
126 
127 
VECTORS centroid_volumes double
0.1953125 0.5 0.5 
0.5859375 0.5 0.5 
0.9765625 0.5 0.5 
1.3671875 0.5 0.5 
1.7578125 0.5 0.5 
2.1484375 0.5 0.5 
2.5390625 0.5 0.5 
2.9296875 0.5 0.5 
3.3203125 0.5 0.5 
3.7109375 0.5 0.5 
4.1015625 0.5 0.5 
4.4921875 0.5 0.5 
4.8828125 0.5 0.5 
5.2734375 0.5 0.5 
5.6640625 0.5 0.5 
6.0546875 0.5 0.5 
6.4453125 0.5 0.5 
6.8359375 0.5 0.5 
7.2265625 0.5 0.5 
7.6171875 0.5 0.5 
8.0078125 0.5 0.5 
8.3984375 0.5 0.5 
8.7890625 0.5 0.5 
9.1796875 0.5 0.5 
9.5703125 0.5 0.5 
9.9609375 0.5 0.5 
10.3515625 0.5 0.5 
10.7421875 0.5 0.5 
11.1328125 0.5 0.5 
11.5234375 0.5 0.5 
11.9140625 0.5 0.5 
12.3046875 0.5 0.5 
12.6953125 0.5 0.5 
13.0859375 0.5 0.5 
13.4765625 0.5 0.5 
13.8671875 0.5 0.5 
14.2578125 0.5 0.5 
14.6484375 0.5 0.5 
15.0390625 0.5 0.5 
15.4296875 0.5 0.5 
15.8203125 0.5 0.5 
16.2109375 0.5 0.5 
16.6015625 0.5 0.5 
16.9921875 0.5 0.5 
17.3828125 0.5 0.5 
17.7734375 0.5 0.5 
18.1640625 0.5 0.5 
18.5546875 0.5 0.5 
18.9453125 0.5 0.5 
19.3359375 0.5 0.5 
19.7265625 0.5 0.5 
20.1171875 0.5 0.5 
20.5078125 0.5 0.5 
20.8984375 0.5 0.5 
21.2890625 0.5 0.5 
21.6796875 0.5 0.5 
22.0703125 0.5 0.5 
22.4609375 0.5 0.5 
22.8515625 0.5 0.5 
23.2421875 0.5 0.5 
23.6328125 0.5 0.5 
24.0234375 0.5 0.5 
24.4140625 0.5 0.5 
24.8046875 0.5 0.5 
25.1953125 0.5 0.5 
25.5859375 0.5 0.5 
25.9765625 0.5 0.5 
26.3671875 0.5 0.5 
26.7578125 0.5 0.5 
27.1484375 0.5 0.5 