# vtk DataFile Version 3.0
MOAB 5.1.1
ASCII
DATASET UNSTRUCTURED_GRID
POINTS 260 double
0 0 0
0 0 1
0 1 1
0 1 0
1.5 0 0
1.5 0 1
1.5 1 1
1.5 1 0
0.0234375 0 0
0.046875 0 0
0.0703125 0 0
0.09375 0 0
0.1171875 0 0
0.140625 0 0
0.1640625 0 0
0.1875 0 0
0.2109375 0 0
0.234375 0 0
0.2578125 0 0
0.28125 0 0
0.3046875 0 0
0.328125 0 0
0.3515625 0 0
0.375 0 0
0.3984375 0 0
0.421875 0 0
0.4453125 0 0
0.46875 0 0
0.4921875 0 0
0.515625 0 0
0.5390625 0 0
0.5625 0 0
0.5859375 0 0
0.609375 0 0
0.6328125 0 0
0.65625 0 0
0.6796875 0 0
0.703125 0 0
0.7265625 0 0
0.75 0 0
0.7734375 0 0
0.796875 0 0
0.8203125 0 0
0.84375 0 0
0.8671875 0 0
0.890625 0 0
0.9140625 0 0
0.9375 0 0
0.9609375 0 0
0.984375 0 0
1.0078125 0 0
1.03125 0 0
1.0546875 0 0
1.078125 0 0
1.1015625 0 0
1.125 0 0
1.1484375 0 0
1.171875 0 0
1.1953125 0 0
1.21875 0 0
1.2421875 0 0
1.265625 0 0
1.2890625 0 0
1.3125 0 0
1.3359375 0 0
1.359375 0 0
1.3828125 0 0
1.40625 0 0
1.4296875 0 0
1.453125 0 0
1.4765625 0 0
0.0234375 0 1
0.046875 0 1
0.0703125 0 1
0.09375 0 1
0.1171875 0 1
0.140625 0 1
0.1640625 0 1
0.1875 0 1
0.2109375 0 1
0.234375 0 1
0.2578125 0 1
0.28125 0 1
0.3046875 0 1
0.328125 0 1
0.3515625 0 1
0.375 0 1
0.3984375 0 1
0.421875 0 1
0.4453125 0 1
0.46875 0 1
0.4921875 0 1
0.515625 0 1
0.5390625 0 1
0.5625 0 1
0.5859375 0 1
0.609375 0 1
0.6328125 0 1
0.65625 0 1
0.6796875 0 1
0.703125 0 1
0.7265625 0 1
0.75 0 1
0.7734375 0 1
0.796875 0 1
0.8203125 0 1
0.84375 0 1
0.8671875 0 1
0.890625 0 1
0.9140625 0 1
0.9375 0 1
0.9609375 0 1
0.984375 0 1
1.0078125 0 1
1.03125 0 1
1.0546875 0 1
1.078125 0 1
1.1015625 0 1
1.125 0 1
1.1484375 0 1
1.171875 0 1
1.1953125 0 1
1.21875 0 1
1.2421875 0 1
1.265625 0 1
1.2890625 0 1
1.3125 0 1
1.3359375 0 1
1.359375 0 1
1.3828125 0 1
1.40625 0 1
1.4296875 0 1
1.453125 0 1
1.4765625 0 1
0.0234375 1 1
0.046875 1 1
0.0703125 1 1
0.09375 1 1
0.1171875 1 1
0.140625 1 1
0.1640625 1 1
0.1875 1 1
0.2109375 1 1
0.234375 1 1
0.2578125 1 1
0.28125 1 1
0.3046875 1 1
0.328125 1 1
0.3515625 1 1
0.375 1 1
0.3984375 1 1
0.421875 1 1
0.4453125 1 1
0.46875 1 1
0.4921875 1 1
0.515625 1 1
0.5390625 1 1
0.5625 1 1
0.5859375 1 1
0.609375 1 1
0.6328125 1 1
0.65625 1 1
0.6796875 1 1
0.703125 1 1
0.7265625 1 1
0.75 1 1
0.7734375 1 1
0.796875 1 1
0.8203125 1 1
0.84375 1 1
0.8671875 1 1
0.890625 1 1
0.9140625 1 1
0.9375 1 1
0.9609375 1 1
0.984375 1 1
1.0078125 1 1
1.03125 1 1
1.0546875 1 1
1.078125 1 1
1.1015625 1 1
1.125 1 1
1.1484375 1 1
1.171875 1 1
1.1953125 1 1
1.21875 1 1
1.2421875 1 1
1.265625 1 1
1.2890625 1 1
1.3125 1 1
1.3359375 1 1
1.359375 1 1
1.3828125 1 1
1.40625 1 1
1.4296875 1 1
1.453125 1 1
1.4765625 1 1
0.0234375 1 0
0.046875 1 0
0.0703125 1 0
0.09375 1 0
0.1171875 1 0
0.140625 1 0
0.1640625 1 0
0.1875 1 0
0.2109375 1 0
0.234375 1 0
0.2578125 1 0
0.28125 1 0
0.3046875 1 0
0.328125 1 0
0.3515625 1 0
0.375 1 0
0.3984375 1 0
0.421875 1 0
0.4453125 1 0
0.46875 1 0
0.4921875 1 0
0.515625 1 0
0.5390625 1 0
0.5625 1 0
0.5859375 1 0
0.609375 1 0
0.6328125 1 0
0.65625 1 0
0.6796875 1 0
0.703125 1 0
0.7265625 1 0
0.75 1 0
0.7734375 1 0
0.796875 1 0
0.8203125 1 0
0.84375 1 0
0.8671875 1 0
0.890625 1 0
0.9140625 1 0
0.9375 1 0
0.9609375 1 0
0.984375 1 0
1.0078125 1 0
1.03125 1 0
1.0546875 1 0
1.078125 1 0
1.1015625 1 0
1.125 1 0
1.1484375 1 0
1.171875 1 0
1.1953125 1 0
1.21875 1 0
1.2421875 1 0
1.265625 1 0
1.2890625 1 0
1.3125 1 0
1.3359375 1 0
1.359375 1 0
1.3828125 1 0
1.40625 1 0
1.4296875 1 0
1.453125 1 0
1.4765625 1 0
CELLS 64 576
8 2 1 0 3 134 71 8 197
8 134 71 8 197 135 72 9 198
8 135 72 9 198 136 73 10 199
8 136 73 10 199 137 74 11 200
8 137 74 11 200 138 75 12 201
8 138 75 12 201 139 76 13 202
8 139 76 13 202 140 77 14 203
8 140 77 14 203 141 78 15 204
8 141 78 15 204 142 79 16 205
8 142 79 16 205 143 80 17 206
8 143 80 17 206 144 81 18 207
8 144 81 18 207 145 82 19 208
8 145 82 19 208 146 83 20 209
8 146 83 20 209 147 84 21 210
8 147 84 21 210 148 85 22 211
8 148 85 22 211 149 86 23 212
8 149 86 23 212 150 87 24 213
8 150 87 24 213 151 88 25 214
8 151 88 25 214 152 89 26 215
8 152 89 26 215 153 90 27 216
8 153 90 27 216 154 91 28 217
8 154 91 28 217 155 92 29 218
8 155 92 29 218 156 93 30 219
8 156 93 30 219 157 94 31 220
8 157 94 31 220 158 95 32 221
8 158 95 32 221 159 96 33 222
8 159 96 33 222 160 97 34 223
8 160 97 34 223 161 98 35 224
8 161 98 35 224 162 99 36 225
8 162 99 36 225 163 100 37 226
8 163 100 37 226 164 101 38 227
8 164 101 38 227 165 102 39 228
8 165 102 39 228 166 103 40 229
8 166 103 40 229 167 104 41 230
8 167 104 41 230 168 105 42 231
8 168 105 42 231 169 106 43 232
8 169 106 43 232 170 107 44 233
8 170 107 44 233 171 108 45 234
8 171 108 45 234 172 109 46 235
8 172 109 46 235 173 110 47 236
8 173 110 47 236 174 111 48 237
8 174 111 48 237 175 112 49 238
8 175 112 49 238 176 113 50 239
8 176 113 50 239 177 114 51 240
8 177 114 51 240 178 115 52 241
8 178 115 52 241 179 116 53 242
8 179 116 53 242 180 117 54 243
8 180 117 54 243 181 118 55 244
8 181 118 55 244 182 119 56 245
8 182 119 56 245 183 120 57 246
8 183 120 57 246 184 121 58 247
8 184 121 58 247 185 122 59 248
8 185 122 59 248 186 123 60 249
8 186 123 60 249 187 124 61 250
8 187 124 61 250 188 125 62 251
8 188 125 62 251 189 126 63 252
8 189 126 63 252 190 127 64 253
8 190 127 64 253 191 128 65 254
8 191 128 65 254 192 129 66 255
8 192 129 66 255 193 130 67 256
8 193 130 67 256 194 131 68 257
8 194 131 68 257 195 132 69 258
8 195 132 69 258 196 133 70 259
8 196 133 70 259 6 5 4 7
CELL_TYPES 64
12
12
12
12
12
12
12
12
12
12
12
12
12
12
12
12
12
12
12
12
12
12
12
12
12
12
12
12
12
12
12
12
12
12
12
12
12
12
12
12
12
12
12
12
12
12
12
12
12
12
12
12
12
12
12
12
12
12
12
12
12
12
12
12
POINT_DATA 260
SCALARS GLOBAL_ID int 1
LOOKUP_TABLE default
0 
1 
2 
3 
4 
5 
6 
7 
8 
9 
10 
11 
12 
13 
14 
15 
16 
17 
18 
19 
20 
21 
22 
23 
24 
25 
26 
27 
28 
29 
30 
31 
32 
33 
34 
35 
36 
37 
38 
39 
40 
41 
42 
43 
44 
45 
46 
47 
48 
49 
50 
51 
52 
53 
54 
55 
56 
57 
58 
59 
60 
61 
62 
63 
64 
65 
66 
67 
68 
69 
70 
71 
72 
73 
74 
75 
76 
77 
78 
79 
80 
81 
82 
83 
84 
85 
86 
87 
88 
89 
90 
91 
92 
93 
94 
95 
96 
97 
98 
99 
100 
101 
102 
103 
104 
105 
106 
107 
108 
109 
110 
111 
112 
113 
114 
115 
116 
117 
118 
119 
120 
121 
122 
123 
124 
125 
126 
127 
128 
129 
130 
131 
132 
133 
134 
135 
136 
137 
138 
139 
140 
141 
142 
143 
144 
145 
146 
147 
148 
149 
150 
151 
152 
153 
154 
155 
156 
157 
158 
159 
160 
161 
162 
163 
164 
165 
166 
167 
168 
169 
170 
171 
172 
173 
174 
175 
176 
177 
178 
179 
180 
181 
182 
183 
184 
185 
186 
187 
188 
189 
190 
191 
192 
193 
194 
195 
196 
197 
198 
199 
200 
201 
202 
203 
204 
205 
206 
207 
208 
209 
210 
211 
212 
213 
214 
215 
216 
217 
218 
219 
220 
221 
222 
223 
224 
225 
226 
227 
228 
229 
230 
231 
232 
233 
234 
235 
236 
237 
238 
239 
240 
241 
242 
243 
244 
245 
246 
247 
248 
249 
250 
251 
252 
253 
254 
255 
256 
257 
258 
259 
VECTORS NODES double
0 0 0 
0 0 1 
0 1 1 
0 1 0 
1.5 0 0 
1.5 0 1 
1.5 1 1 
1.5 1 0 
0.0234375 0 0 
0.046875 0 0 
0.0703125 0 0 
0.09375 0 0 
0.1171875 0 0 
0.140625 0 0 
0.1640625 0 0 
0.1875 0 0 
0.2109375 0 0 
0.234375 0 0 
0.2578125 0 0 
0.28125 0 0 
0.3046875 0 0 
0.328125 0 0 
0.3515625 0 0 
0.375 0 0 
0.3984375 0 0 
0.421875 0 0 
0.4453125 0 0 
0.46875 0 0 
0.4921875 0 0 
0.515625 0 0 
0.5390625 0 0 
0.5625 0 0 
0.5859375 0 0 
0.609375 0 0 
0.6328125 0 0 
0.65625 0 0 
0.6796875 0 0 
0.703125 0 0 
0.7265625 0 0 
0.75 0 0 
0.7734375 0 0 
0.796875 0 0 
0.8203125 0 0 
0.84375 0 0 
0.8671875 0 0 
0.890625 0 0 
0.9140625 0 0 
0.9375 0 0 
0.9609375 0 0 
0.984375 0 0 
1.0078125 0 0 
1.03125 0 0 
1.0546875 0 0 
1.078125 0 0 
1.1015625 0 0 
1.125 0 0 
1.1484375 0 0 
1.171875 0 0 
1.1953125 0 0 
1.21875 0 0 
1.2421875 0 0 
1.265625 0 0 
1.2890625 0 0 
1.3125 0 0 
1.3359375 0 0 
1.359375 0 0 
1.3828125 0 0 
1.40625 0 0 
1.4296875 0 0 
1.453125 0 0 
1.4765625 0 0 
0.0234375 0 1 
0.046875 0 1 
0.0703125 0 1 
0.09375 0 1 
0.1171875 0 1 
0.140625 0 1 
0.1640625 0 1 
0.1875 0 1 
0.2109375 0 1 
0.234375 0 1 
0.2578125 0 1 
0.28125 0 1 
0.3046875 0 1 
0.328125 0 1 
0.3515625 0 1 
0.375 0 1 
0.3984375 0 1 
0.421875 0 1 
0.4453125 0 1 
0.46875 0 1 
0.4921875 0 1 
0.515625 0 1 
0.5390625 0 1 
0.5625 0 1 
0.5859375 0 1 
0.609375 0 1 
0.6328125 0 1 
0.65625 0 1 
0.6796875 0 1 
0.703125 0 1 
0.7265625 0 1 
0.75 0 1 
0.7734375 0 1 
0.796875 0 1 
0.8203125 0 1 
0.84375 0 1 
0.8671875 0 1 
0.890625 0 1 
0.9140625 0 1 
0.9375 0 1 
0.9609375 0 1 
0.984375 0 1 
1.0078125 0 1 
1.03125 0 1 
1.0546875 0 1 
1.078125 0 1 
1.1015625 0 1 
1.125 0 1 
1.1484375 0 1 
1.171875 0 1 
1.1953125 0 1 
1.21875 0 1 
1.2421875 0 1 
1.265625 0 1 
1.2890625 0 1 
1.3125 0 1 
1.3359375 0 1 
1.359375 0 1 
1.3828125 0 1 
1.40625 0 1 
1.4296875 0 1 
1.453125 0 1 
1.4765625 0 1 
0.0234375 1 1 
0.046875 1 1 
0.0703125 1 1 
0.09375 1 1 
0.1171875 1 1 
0.140625 1 1 
0.1640625 1 1 
0.1875 1 1 
0.2109375 1 1 
0.234375 1 1 
0.2578125 1 1 
0.28125 1 1 
0.3046875 1 1 
0.328125 1 1 
0.3515625 1 1 
0.375 1 1 
0.3984375 1 1 
0.421875 1 1 
0.4453125 1 1 
0.46875 1 1 
0.4921875 1 1 
0.515625 1 1 
0.5390625 1 1 
0.5625 1 1 
0.5859375 1 1 
0.609375 1 1 
0.6328125 1 1 
0.65625 1 1 
0.6796875 1 1 
0.703125 1 1 
0.7265625 1 1 
0.75 1 1 
0.7734375 1 1 
0.796875 1 1 
0.8203125 1 1 
0.84375 1 1 
0.8671875 1 1 
0.890625 1 1 
0.9140625 1 1 
0.9375 1 1 
0.9609375 1 1 
0.984375 1 1 
1.0078125 1 1 
1.03125 1 1 
1.0546875 1 1 
1.078125 1 1 
1.1015625 1 1 
1.125 1 1 
1.1484375 1 1 
1.171875 1 1 
1.1953125 1 1 
1.21875 1 1 
1.2421875 1 1 
1.265625 1 1 
1.2890625 1 1 
1.3125 1 1 
1.3359375 1 1 
1.359375 1 1 
1.3828125 1 1 
1.40625 1 1 
1.4296875 1 1 
1.453125 1 1 
1.4765625 1 1 
0.0234375 1 0 
0.046875 1 0 
0.0703125 1 0 
0.09375 1 0 
0.1171875 1 0 
0.140625 1 0 
0.1640625 1 0 
0.1875 1 0 
0.2109375 1 0 
0.234375 1 0 
0.2578125 1 0 
0.28125 1 0 
0.3046875 1 0 
0.328125 1 0 
0.3515625 1 0 
0.375 1 0 
0.3984375 1 0 
0.421875 1 0 
0.4453125 1 0 
0.46875 1 0 
0.4921875 1 0 
0.515625 1 0 
0.5390625 1 0 
0.5625 1 0 
0.5859375 1 0 
0.609375 1 0 
0.6328125 1 0 
0.65625 1 0 
0.6796875 1 0 
0.703125 1 0 
0.7265625 1 0 
0.75 1 0 
0.7734375 1 0 
0.796875 1 0 
0.8203125 1 0 
0.84375 1 0 
0.8671875 1 0 
0.890625 1 0 
0.9140625 1 0 
0.9375 1 0 
0.9609375 1 0 
0.984375 1 0 
1.0078125 1 0 
1.03125 1 0 
1.0546875 1 0 
1.078125 1 0 
1.1015625 1 0 
1.125 1 0 
1.1484375 1 0 
1.171875 1 0 
1.1953125 1 0 
1.21875 1 0 
1.2421875 1 0 
1.265625 1 0 
1.2890625 1 0 
1.3125 1 0 
1.3359375 1 0 
1.359375 1 0 
1.3828125 1 0 
1.40625 1 0 
1.4296875 1 0 
1.453125 1 0 
1.4765625 1 0 
VECTORS centroid_nodes double
0 0 0 
0 0 1 
0 1 1 
0 1 0 
1.5 0 0 
1.5 0 1 
1.5 1 1 
1.5 1 0 
0.0234375 0 0 
0.046875 0 0 
0.0703125 0 0 
0.09375 0 0 
0.1171875 0 0 
0.140625 0 0 
0.1640625 0 0 
0.1875 0 0 
0.2109375 0 0 
0.234375 0 0 
0.2578125 0 0 
0.28125 0 0 
0.3046875 0 0 
0.328125 0 0 
0.3515625 0 0 
0.375 0 0 
0.3984375 0 0 
0.421875 0 0 
0.4453125 0 0 
0.46875 0 0 
0.4921875 0 0 
0.515625 0 0 
0.5390625 0 0 
0.5625 0 0 
0.5859375 0 0 
0.609375 0 0 
0.6328125 0 0 
0.65625 0 0 
0.6796875 0 0 
0.703125 0 0 
0.7265625 0 0 
0.75 0 0 
0.7734375 0 0 
0.796875 0 0 
0.8203125 0 0 
0.84375 0 0 
0.8671875 0 0 
0.890625 0 0 
0.9140625 0 0 
0.9375 0 0 
0.9609375 0 0 
0.984375 0 0 
1.0078125 0 0 
1.03125 0 0 
1.0546875 0 0 
1.078125 0 0 
1.1015625 0 0 
1.125 0 0 
1.1484375 0 0 
1.171875 0 0 
1.1953125 0 0 
1.21875 0 0 
1.2421875 0 0 
1.265625 0 0 
1.2890625 0 0 
1.3125 0 0 
1.3359375 0 0 
1.359375 0 0 
1.3828125 0 0 
1.40625 0 0 
1.4296875 0 0 
1.453125 0 0 
1.4765625 0 0 
0.0234375 0 1 
0.046875 0 1 
0.0703125 0 1 
0.09375 0 1 
0.1171875 0 1 
0.140625 0 1 
0.1640625 0 1 
0.1875 0 1 
0.2109375 0 1 
0.234375 0 1 
0.2578125 0 1 
0.28125 0 1 
0.3046875 0 1 
0.328125 0 1 
0.3515625 0 1 
0.375 0 1 
0.3984375 0 1 
0.421875 0 1 
0.4453125 0 1 
0.46875 0 1 
0.4921875 0 1 
0.515625 0 1 
0.5390625 0 1 
0.5625 0 1 
0.5859375 0 1 
0.609375 0 1 
0.6328125 0 1 
0.65625 0 1 
0.6796875 0 1 
0.703125 0 1 
0.7265625 0 1 
0.75 0 1 
0.7734375 0 1 
0.796875 0 1 
0.8203125 0 1 
0.84375 0 1 
0.8671875 0 1 
0.890625 0 1 
0.9140625 0 1 
0.9375 0 1 
0.9609375 0 1 
0.984375 0 1 
1.0078125 0 1 
1.03125 0 1 
1.0546875 0 1 
1.078125 0 1 
1.1015625 0 1 
1.125 0 1 
1.1484375 0 1 
1.171875 0 1 
1.1953125 0 1 
1.21875 0 1 
1.2421875 0 1 
1.265625 0 1 
1.2890625 0 1 
1.3125 0 1 
1.3359375 0 1 
1.359375 0 1 
1.3828125 0 1 
1.40625 0 1 
1.4296875 0 1 
1.453125 0 1 
1.4765625 0 1 
0.0234375 1 1 
0.046875 1 1 
0.0703125 1 1 
0.09375 1 1 
0.1171875 1 1 
0.140625 1 1 
0.1640625 1 1 
0.1875 1 1 
0.2109375 1 1 
0.234375 1 1 
0.2578125 1 1 
0.28125 1 1 
0.3046875 1 1 
0.328125 1 1 
0.3515625 1 1 
0.375 1 1 
0.3984375 1 1 
0.421875 1 1 
0.4453125 1 1 
0.46875 1 1 
0.4921875 1 1 
0.515625 1 1 
0.5390625 1 1 
0.5625 1 1 
0.5859375 1 1 
0.609375 1 1 
0.6328125 1 1 
0.65625 1 1 
0.6796875 1 1 
0.703125 1 1 
0.7265625 1 1 
0.75 1 1 
0.7734375 1 1 
0.796875 1 1 
0.8203125 1 1 
0.84375 1 1 
0.8671875 1 1 
0.890625 1 1 
0.9140625 1 1 
0.9375 1 1 
0.9609375 1 1 
0.984375 1 1 
1.0078125 1 1 
1.03125 1 1 
1.0546875 1 1 
1.078125 1 1 
1.1015625 1 1 
1.125 1 1 
1.1484375 1 1 
1.171875 1 1 
1.1953125 1 1 
1.21875 1 1 
1.2421875 1 1 
1.265625 1 1 
1.2890625 1 1 
1.3125 1 1 
1.3359375 1 1 
1.359375 1 1 
1.3828125 1 1 
1.40625 1 1 
1.4296875 1 1 
1.453125 1 1 
1.4765625 1 1 
0.0234375 1 0 
0.046875 1 0 
0.0703125 1 0 
0.09375 1 0 
0.1171875 1 0 
0.140625 1 0 
0.1640625 1 0 
0.1875 1 0 
0.2109375 1 0 
0.234375 1 0 
0.2578125 1 0 
0.28125 1 0 
0.3046875 1 0 
0.328125 1 0 
0.3515625 1 0 
0.375 1 0 
0.3984375 1 0 
0.421875 1 0 
0.4453125 1 0 
0.46875 1 0 
0.4921875 1 0 
0.515625 1 0 
0.5390625 1 0 
0.5625 1 0 
0.5859375 1 0 
0.609375 1 0 
0.6328125 1 0 
0.65625 1 0 
0.6796875 1 0 
0.703125 1 0 
0.7265625 1 0 
0.75 1 0 
0.7734375 1 0 
0.796875 1 0 
0.8203125 1 0 
0.84375 1 0 
0.8671875 1 0 
0.890625 1 0 
0.9140625 1 0 
0.9375 1 0 
0.9609375 1 0 
0.984375 1 0 
1.0078125 1 0 
1.03125 1 0 
1.0546875 1 0 
1.078125 1 0 
1.1015625 1 0 
1.125 1 0 
1.1484375 1 0 
1.171875 1 0 
1.1953125 1 0 
1.21875 1 0 
1.2421875 1 0 
1.265625 1 0 
1.2890625 1 0 
1.3125 1 0 
1.3359375 1 0 
1.359375 1 0 
1.3828125 1 0 
1.40625 1 0 
1.4296875 1 0 
1.453125 1 0 
1.4765625 1 0 
CELL_DATA 64
SCALARS GLOBAL_ID int 1
LOOKUP_TABLE default
0 
1 
2 
3 
4 
5 
6 
7 
8 
9 
10 
11 
12 
13 
14 
15 
16 
17 
18 
19 
20 
21 
22 
23 
24 
25 
26 
27 
28 
29 
30 
31 
32 
33 
34 
35 
36 
37 
38 
39 
40 
41 
42 
43 
44 
45 
46 
47 
48 
49 
50 
51 
52 
53 
54 
55 
56 
57 
58 
59 
60 
61 
62 
63 
SCALARS Sg double 1
LOOKUP_TABLE default
1 
1 
1 
1 
1 
1 
1 
1 
0.9860380754 
0.9545186843 
0.9357877334 
0.9286901557 
0.9271425688 
0.9272990265 
0.9284298841 
0.9311225275 
0.9349786035 
0.938840675 
0.9417974298 
0.943675902 
0.9447644739 
0.9453971712 
0.9457804227 
0.9460066708 
0.9461231148 
0.946155424 
0.9460840976 
0.9457453711 
0.9444263197 
0.9396183264 
0.9248768313 
0.8952436879 
0.8680348388 
0.8559896015 
0.8468278309 
0.8363962626 
0.8241124629 
0.8086268574 
0.789662463 
0.7689501093 
0.7492786409 
0.7295913926 
0.7064737608 
0.6760862337 
0.6361265344 
0.6242199797 
0.6370316865 
0.4184863858 
0.01658120908 
0 
0 
0 
0 
0 
0 
0 
0 
0 
0 
0 
0 
0 
0 
0 
SCALARS So double 1
LOOKUP_TABLE default
0 
0 
0 
0 
0 
0 
0 
0 
0.01396192461 
0.04548131571 
0.06421226664 
0.07130984432 
0.07285743125 
0.07270097348 
0.07157011586 
0.06887747253 
0.06502139647 
0.06115932502 
0.05820257019 
0.05632409802 
0.05523552611 
0.05460282884 
0.0542195773 
0.05399332921 
0.05387688523 
0.05384457595 
0.0539159024 
0.05425462891 
0.05557368027 
0.0603816736 
0.07512316873 
0.1047563121 
0.1319651612 
0.1440103985 
0.1531721691 
0.1636037374 
0.1758875371 
0.1913731426 
0.210337537 
0.2310498907 
0.2507213591 
0.2704086074 
0.2935262392 
0.3239137663 
0.3638734656 
0.3757800203 
0.3629683135 
0.5815136142 
0.9834187909 
1 
1 
1 
1 
1 
1 
1 
1 
1 
1 
1 
1 
1 
1 
1 
VECTORS centroid_volumes double
0.01171875 0.5 0.5 
0.03515625 0.5 0.5 
0.05859375 0.5 0.5 
0.08203125 0.5 0.5 
0.10546875 0.5 0.5 
0.12890625 0.5 0.5 
0.15234375 0.5 0.5 
0.17578125 0.5 0.5 
0.19921875 0.5 0.5 
0.22265625 0.5 0.5 
0.24609375 0.5 0.5 
0.26953125 0.5 0.5 
0.29296875 0.5 0.5 
0.31640625 0.5 0.5 
0.33984375 0.5 0.5 
0.36328125 0.5 0.5 
0.38671875 0.5 0.5 
0.41015625 0.5 0.5 
0.43359375 0.5 0.5 
0.45703125 0.5 0.5 
0.48046875 0.5 0.5 
0.50390625 0.5 0.5 
0.52734375 0.5 0.5 
0.55078125 0.5 0.5 
0.57421875 0.5 0.5 
0.59765625 0.5 0.5 
0.62109375 0.5 0.5 
0.64453125 0.5 0.5 
0.66796875 0.5 0.5 
0.69140625 0.5 0.5 
0.71484375 0.5 0.5 
0.73828125 0.5 0.5 
0.76171875 0.5 0.5 
0.78515625 0.5 0.5 
0.80859375 0.5 0.5 
0.83203125 0.5 0.5 
0.85546875 0.5 0.5 
0.87890625 0.5 0.5 
0.90234375 0.5 0.5 
0.92578125 0.5 0.5 
0.94921875 0.5 0.5 
0.97265625 0.5 0.5 
0.99609375 0.5 0.5 
1.01953125 0.5 0.5 
1.04296875 0.5 0.5 
1.06640625 0.5 0.5 
1.08984375 0.5 0.5 
1.11328125 0.5 0.5 
1.13671875 0.5 0.5 
1.16015625 0.5 0.5 
1.18359375 0.5 0.5 
1.20703125 0.5 0.5 
1.23046875 0.5 0.5 
1.25390625 0.5 0.5 
1.27734375 0.5 0.5 
1.30078125 0.5 0.5 
1.32421875 0.5 0.5 
1.34765625 0.5 0.5 
1.37109375 0.5 0.5 
1.39453125 0.5 0.5 
1.41796875 0.5 0.5 
1.44140625 0.5 0.5 
1.46484375 0.5 0.5 
1.48828125 0.5 0.5 
SCALARS flux_grav_volumes double 1
LOOKUP_TABLE default
0 
0 
0 
0 
0 
0 
0 
0 
0 
0 
0 
0 
0 
0 
0 
0 
0 
0 
0 
0 
0 
0 
0 
0 
0 
0 
0 
0 
0 
0 
0 
0 
0 
0 
0 
0 
0 
0 
0 
0 
0 
0 
0 
0 
0 
0 
0 
0 
0 
0 
0 
0 
0 
0 
0 
0 
0 
0 
0 
0 
0 
0 
0 
0 
SCALARS flux_o_volumes double 1
LOOKUP_TABLE default
0 
0 
0 
0 
0 
0 
0 
0 
0 
0 
0 
0 
0 
0 
0 
0 
0 
0 
0 
0 
0 
0 
0 
0 
0 
0 
0 
0 
0 
0 
0 
0 
0 
0 
0 
0 
0 
0 
0 
0 
0 
0 
0 
0 
0 
0 
0 
0 
0 
0 
0 
0 
0 
0 
0 
0 
0 
0 
0 
0 
0 
0 
0 
0 
SCALARS flux_volumes double 1
LOOKUP_TABLE default
0 
0 
0 
0 
0 
0 
0 
0 
0 
0 
0 
0 
0 
0 
0 
0 
0 
0 
0 
0 
0 
0 
0 
0 
0 
0 
0 
0 
0 
0 
0 
0 
0 
0 
0 
0 
0 
0 
0 
0 
0 
0 
0 
0 
0 
0 
0 
0 
0 
0 
0 
0 
0 
0 
0 
0 
0 
0 
0 
0 
0 
0 
0 
0 
SCALARS flux_volumes_test double 1
LOOKUP_TABLE default
0 
0 
0 
0 
0 
0 
0 
0 
0 
0 
0 
0 
0 
0 
0 
0 
0 
0 
0 
0 
0 
0 
0 
0 
0 
0 
0 
0 
0 
0 
0 
0 
0 
0 
0 
0 
0 
0 
0 
0 
0 
0 
0 
0 
0 
0 
0 
0 
0 
0 
0 
0 
0 
0 
0 
0 
0 
0 
0 
0 
0 
0 
0 
0 
SCALARS flux_w_volumes double 1
LOOKUP_TABLE default
0 
0 
0 
0 
0 
0 
0 
0 
0 
0 
0 
0 
0 
0 
0 
0 
0 
0 
0 
0 
0 
0 
0 
0 
0 
0 
0 
0 
0 
0 
0 
0 
0 
0 
0 
0 
0 
0 
0 
0 
0 
0 
0 
0 
0 
0 
0 
0 
0 
0 
0 
0 
0 
0 
0 
0 
0 
0 
0 
0 
0 
0 
0 
0 
SCALARS fw_vol double 1
LOOKUP_TABLE default
0 
0 
0 
0 
0 
0 
0 
0 
0 
0 
0 
0 
0 
0 
0 
0 
0 
0 
0 
0 
0 
0 
0 
0 
0 
0 
0 
0 
0 
0 
0 
0 
0 
0 
0 
0 
0 
0 
0 
0 
0 
0 
0 
0 
0 
0 
0 
0 
0 
0 
0 
0 
0 
0 
0 
0 
0 
0 
0 
0 
0 
0 
0 
0 
SCALARS gama double 1
LOOKUP_TABLE default
10000 
10000 
10000 
10000 
10000 
10000 
10000 
10000 
10000 
10000 
10000 
10000 
10000 
10000 
10000 
10000 
10000 
10000 
10000 
10000 
10000 
10000 
10000 
10000 
10000 
10000 
10000 
10000 
10000 
10000 
10000 
10000 
10000 
10000 
10000 
10000 
10000 
10000 
10000 
10000 
10000 
10000 
10000 
10000 
10000 
10000 
10000 
10000 
10000 
10000 
10000 
10000 
10000 
10000 
10000 
10000 
10000 
10000 
10000 
10000 
10000 
10000 
10000 
10000 
VECTORS hs double
0.0234375 1 1 
0.0234375 1 1 
0.0234375 1 1 
0.0234375 1 1 
0.0234375 1 1 
0.0234375 1 1 
0.0234375 1 1 
0.0234375 1 1 
0.0234375 1 1 
0.0234375 1 1 
0.0234375 1 1 
0.0234375 1 1 
0.0234375 1 1 
0.0234375 1 1 
0.0234375 1 1 
0.0234375 1 1 
0.0234375 1 1 
0.0234375 1 1 
0.0234375 1 1 
0.0234375 1 1 
0.0234375 1 1 
0.0234375 1 1 
0.0234375 1 1 
0.0234375 1 1 
0.0234375 1 1 
0.0234375 1 1 
0.0234375 1 1 
0.0234375 1 1 
0.0234375 1 1 
0.0234375 1 1 
0.0234375 1 1 
0.0234375 1 1 
0.0234375 1 1 
0.0234375 1 1 
0.0234375 1 1 
0.0234375 1 1 
0.0234375 1 1 
0.0234375 1 1 
0.0234375 1 1 
0.0234375 1 1 
0.0234375 1 1 
0.0234375 1 1 
0.0234375 1 1 
0.0234375 1 1 
0.0234375 1 1 
0.0234375 1 1 
0.0234375 1 1 
0.0234375 1 1 
0.0234375 1 1 
0.0234375 1 1 
0.0234375 1 1 
0.0234375 1 1 
0.0234375 1 1 
0.0234375 1 1 
0.0234375 1 1 
0.0234375 1 1 
0.0234375 1 1 
0.0234375 1 1 
0.0234375 1 1 
0.0234375 1 1 
0.0234375 1 1 
0.0234375 1 1 
0.0234375 1 1 
0.0234375 1 1 
SCALARS kro double 1
LOOKUP_TABLE default
0 
0 
0 
0 
0 
0 
0 
0 
0 
0 
0 
0 
0 
0 
0 
0 
0 
0 
0 
0 
0 
0 
0 
0 
0 
0 
0 
0 
0 
0 
0 
0 
0 
0 
0 
0 
0 
0 
0 
0 
0 
0 
0 
0 
0 
0 
0 
0 
0 
0 
0 
0 
0 
0 
0 
0 
0 
0 
0 
0 
0 
0 
0 
0 
SCALARS krw double 1
LOOKUP_TABLE default
0 
0 
0 
0 
0 
0 
0 
0 
0 
0 
0 
0 
0 
0 
0 
0 
0 
0 
0 
0 
0 
0 
0 
0 
0 
0 
0 
0 
0 
0 
0 
0 
0 
0 
0 
0 
0 
0 
0 
0 
0 
0 
0 
0 
0 
0 
0 
0 
0 
0 
0 
0 
0 
0 
0 
0 
0 
0 
0 
0 
0 
0 
0 
0 
SCALARS lambda_o double 1
LOOKUP_TABLE default
0 
0 
0 
0 
0 
0 
0 
0 
0 
0 
0 
0 
0 
0 
0 
0 
0 
0 
0 
0 
0 
0 
0 
0 
0 
0 
0 
0 
0 
0 
0 
0 
0 
0 
0 
0 
0 
0 
0 
0 
0 
0 
0 
0 
0 
0 
0 
0 
0 
0 
0 
0 
0 
0 
0 
0 
0 
0 
0 
0 
0 
0 
0 
0 
SCALARS lambda_t double 1
LOOKUP_TABLE default
0 
0 
0 
0 
0 
0 
0 
0 
0 
0 
0 
0 
0 
0 
0 
0 
0 
0 
0 
0 
0 
0 
0 
0 
0 
0 
0 
0 
0 
0 
0 
0 
0 
0 
0 
0 
0 
0 
0 
0 
0 
0 
0 
0 
0 
0 
0 
0 
0 
0 
0 
0 
0 
0 
0 
0 
0 
0 
0 
0 
0 
0 
0 
0 
SCALARS lambda_w double 1
LOOKUP_TABLE default
0 
0 
0 
0 
0 
0 
0 
0 
0 
0 
0 
0 
0 
0 
0 
0 
0 
0 
0 
0 
0 
0 
0 
0 
0 
0 
0 
0 
0 
0 
0 
0 
0 
0 
0 
0 
0 
0 
0 
0 
0 
0 
0 
0 
0 
0 
0 
0 
0 
0 
0 
0 
0 
0 
0 
0 
0 
0 
0 
0 
0 
0 
0 
0 
SCALARS mass_oil_production double 1
LOOKUP_TABLE default
0 
0 
0 
0 
0 
0 
0 
0 
0 
0 
0 
0 
0 
0 
0 
0 
0 
0 
0 
0 
0 
0 
0 
0 
0 
0 
0 
0 
0 
0 
0 
0 
0 
0 
0 
0 
0 
0 
0 
0 
0 
0 
0 
0 
0 
0 
0 
0 
0 
0 
0 
0 
0 
0 
0 
0 
0 
0 
0 
0 
0 
0 
0 
0 
SCALARS mass_water_production double 1
LOOKUP_TABLE default
0 
0 
0 
0 
0 
0 
0 
0 
0 
0 
0 
0 
0 
0 
0 
0 
0 
0 
0 
0 
0 
0 
0 
0 
0 
0 
0 
0 
0 
0 
0 
0 
0 
0 
0 
0 
0 
0 
0 
0 
0 
0 
0 
0 
0 
0 
0 
0 
0 
0 
0 
0 
0 
0 
0 
0 
0 
0 
0 
0 
0 
0 
0 
0 
TENSORS permeability double
9.869233e-15 0 0 0 9.869233e-15 0 0 0 9.869233e-15 
9.869233e-15 0 0 0 9.869233e-15 0 0 0 9.869233e-15 
9.869233e-15 0 0 0 9.869233e-15 0 0 0 9.869233e-15 
9.869233e-15 0 0 0 9.869233e-15 0 0 0 9.869233e-15 
9.869233e-15 0 0 0 9.869233e-15 0 0 0 9.869233e-15 
9.869233e-15 0 0 0 9.869233e-15 0 0 0 9.869233e-15 
9.869233e-15 0 0 0 9.869233e-15 0 0 0 9.869233e-15 
9.869233e-15 0 0 0 9.869233e-15 0 0 0 9.869233e-15 
9.869233e-15 0 0 0 9.869233e-15 0 0 0 9.869233e-15 
9.869233e-15 0 0 0 9.869233e-15 0 0 0 9.869233e-15 
9.869233e-15 0 0 0 9.869233e-15 0 0 0 9.869233e-15 
9.869233e-15 0 0 0 9.869233e-15 0 0 0 9.869233e-15 
9.869233e-15 0 0 0 9.869233e-15 0 0 0 9.869233e-15 
9.869233e-15 0 0 0 9.869233e-15 0 0 0 9.869233e-15 
9.869233e-15 0 0 0 9.869233e-15 0 0 0 9.869233e-15 
9.869233e-15 0 0 0 9.869233e-15 0 0 0 9.869233e-15 
9.869233e-15 0 0 0 9.869233e-15 0 0 0 9.869233e-15 
9.869233e-15 0 0 0 9.869233e-15 0 0 0 9.869233e-15 
9.869233e-15 0 0 0 9.869233e-15 0 0 0 9.869233e-15 
9.869233e-15 0 0 0 9.869233e-15 0 0 0 9.869233e-15 
9.869233e-15 0 0 0 9.869233e-15 0 0 0 9.869233e-15 
9.869233e-15 0 0 0 9.869233e-15 0 0 0 9.869233e-15 
9.869233e-15 0 0 0 9.869233e-15 0 0 0 9.869233e-15 
9.869233e-15 0 0 0 9.869233e-15 0 0 0 9.869233e-15 
9.869233e-15 0 0 0 9.869233e-15 0 0 0 9.869233e-15 
9.869233e-15 0 0 0 9.869233e-15 0 0 0 9.869233e-15 
9.869233e-15 0 0 0 9.869233e-15 0 0 0 9.869233e-15 
9.869233e-15 0 0 0 9.869233e-15 0 0 0 9.869233e-15 
9.869233e-15 0 0 0 9.869233e-15 0 0 0 9.869233e-15 
9.869233e-15 0 0 0 9.869233e-15 0 0 0 9.869233e-15 
9.869233e-15 0 0 0 9.869233e-15 0 0 0 9.869233e-15 
9.869233e-15 0 0 0 9.869233e-15 0 0 0 9.869233e-15 
9.869233e-15 0 0 0 9.869233e-15 0 0 0 9.869233e-15 
9.869233e-15 0 0 0 9.869233e-15 0 0 0 9.869233e-15 
9.869233e-15 0 0 0 9.869233e-15 0 0 0 9.869233e-15 
9.869233e-15 0 0 0 9.869233e-15 0 0 0 9.869233e-15 
9.869233e-15 0 0 0 9.869233e-15 0 0 0 9.869233e-15 
9.869233e-15 0 0 0 9.869233e-15 0 0 0 9.869233e-15 
9.869233e-15 0 0 0 9.869233e-15 0 0 0 9.869233e-15 
9.869233e-15 0 0 0 9.869233e-15 0 0 0 9.869233e-15 
9.869233e-15 0 0 0 9.869233e-15 0 0 0 9.869233e-15 
9.869233e-15 0 0 0 9.869233e-15 0 0 0 9.869233e-15 
9.869233e-15 0 0 0 9.869233e-15 0 0 0 9.869233e-15 
9.869233e-15 0 0 0 9.869233e-15 0 0 0 9.869233e-15 
9.869233e-15 0 0 0 9.869233e-15 0 0 0 9.869233e-15 
9.869233e-15 0 0 0 9.869233e-15 0 0 0 9.869233e-15 
9.869233e-15 0 0 0 9.869233e-15 0 0 0 9.869233e-15 
9.869233e-15 0 0 0 9.869233e-15 0 0 0 9.869233e-15 
9.869233e-15 0 0 0 9.869233e-15 0 0 0 9.869233e-15 
9.869233e-15 0 0 0 9.869233e-15 0 0 0 9.869233e-15 
9.869233e-15 0 0 0 9.869233e-15 0 0 0 9.869233e-15 
9.869233e-15 0 0 0 9.869233e-15 0 0 0 9.869233e-15 
9.869233e-15 0 0 0 9.869233e-15 0 0 0 9.869233e-15 
9.869233e-15 0 0 0 9.869233e-15 0 0 0 9.869233e-15 
9.869233e-15 0 0 0 9.869233e-15 0 0 0 9.869233e-15 
9.869233e-15 0 0 0 9.869233e-15 0 0 0 9.869233e-15 
9.869233e-15 0 0 0 9.869233e-15 0 0 0 9.869233e-15 
9.869233e-15 0 0 0 9.869233e-15 0 0 0 9.869233e-15 
9.869233e-15 0 0 0 9.869233e-15 0 0 0 9.869233e-15 
9.869233e-15 0 0 0 9.869233e-15 0 0 0 9.869233e-15 
9.869233e-15 0 0 0 9.869233e-15 0 0 0 9.869233e-15 
9.869233e-15 0 0 0 9.869233e-15 0 0 0 9.869233e-15 
9.869233e-15 0 0 0 9.869233e-15 0 0 0 9.869233e-15 
9.869233e-15 0 0 0 9.869233e-15 0 0 0 9.869233e-15 
SCALARS poro double 1
LOOKUP_TABLE default
1 
1 
1 
1 
1 
1 
1 
1 
1 
1 
1 
1 
1 
1 
1 
1 
1 
1 
1 
1 
1 
1 
1 
1 
1 
1 
1 
1 
1 
1 
1 
1 
1 
1 
1 
1 
1 
1 
1 
1 
1 
1 
1 
1 
1 
1 
1 
1 
1 
1 
1 
1 
1 
1 
1 
1 
1 
1 
1 
1 
1 
1 
1 
1 
SCALARS pressure double 1
LOOKUP_TABLE default
0 
0 
0 
0 
0 
0 
0 
0 
0 
0 
0 
0 
0 
0 
0 
0 
0 
0 
0 
0 
0 
0 
0 
0 
0 
0 
0 
0 
0 
0 
0 
0 
0 
0 
0 
0 
0 
0 
0 
0 
0 
0 
0 
0 
0 
0 
0 
0 
0 
0 
0 
0 
0 
0 
0 
0 
0 
0 
0 
0 
0 
0 
0 
0 
SCALARS saturation double 1
LOOKUP_TABLE default
0 
0 
0 
0 
0 
0 
0 
0 
0 
0 
0 
0 
0 
0 
0 
0 
0 
0 
0 
0 
0 
0 
0 
0 
0 
0 
0 
0 
0 
0 
0 
0 
0 
0 
0 
0 
0 
0 
0 
0 
0 
0 
0 
0 
0 
0 
0 
0 
0 
0 
0 
0 
0 
0 
0 
0 
0 
0 
0 
0 
0 
0 
0 
0 
SCALARS saturation_last double 1
LOOKUP_TABLE default
0 
0 
0 
0 
0 
0 
0 
0 
0 
0 
0 
0 
0 
0 
0 
0 
0 
0 
0 
0 
0 
0 
0 
0 
0 
0 
0 
0 
0 
0 
0 
0 
0 
0 
0 
0 
0 
0 
0 
0 
0 
0 
0 
0 
0 
0 
0 
0 
0 
0 
0 
0 
0 
0 
0 
0 
0 
0 
0 
0 
0 
0 
0 
0 
SCALARS test_fw double 1
LOOKUP_TABLE default
0 
0 
0 
0 
0 
0 
0 
0 
0 
0 
0 
0 
0 
0 
0 
0 
0 
0 
0 
0 
0 
0 
0 
0 
0 
0 
0 
0 
0 
0 
0 
0 
0 
0 
0 
0 
0 
0 
0 
0 
0 
0 
0 
0 
0 
0 
0 
0 
0 
0 
0 
0 
0 
0 
0 
0 
0 
0 
0 
0 
0 
0 
0 
0 
SCALARS verif_po double 1
LOOKUP_TABLE default
0 
0 
0 
0 
0 
0 
0 
0 
0 
0 
0 
0 
0 
0 
0 
0 
0 
0 
0 
0 
0 
0 
0 
0 
0 
0 
0 
0 
0 
0 
0 
0 
0 
0 
0 
0 
0 
0 
0 
0 
0 
0 
0 
0 
0 
0 
0 
0 
0 
0 
0 
0 
0 
0 
0 
0 
0 
0 
0 
0 
0 
0 
0 
0 
SCALARS verif_rest double 1
LOOKUP_TABLE default
0 
0 
0 
0 
0 
0 
0 
0 
0 
0 
0 
0 
0 
0 
0 
0 
0 
0 
0 
0 
0 
0 
0 
0 
0 
0 
0 
0 
0 
0 
0 
0 
0 
0 
0 
0 
0 
0 
0 
0 
0 
0 
0 
0 
0 
0 
0 
0 
0 
0 
0 
0 
0 
0 
0 
0 
0 
0 
0 
0 
0 
0 
0 
0 
SCALARS volume double 1
LOOKUP_TABLE default
0.0234375 
0.0234375 
0.0234375 
0.0234375 
0.0234375 
0.0234375 
0.0234375 
0.0234375 
0.0234375 
0.0234375 
0.0234375 
0.0234375 
0.0234375 
0.0234375 
0.0234375 
0.0234375 
0.0234375 
0.0234375 
0.0234375 
0.0234375 
0.0234375 
0.0234375 
0.0234375 
0.0234375 
0.0234375 
0.0234375 
0.0234375 
0.0234375 
0.0234375 
0.0234375 
0.0234375 
0.0234375 
0.0234375 
0.0234375 
0.0234375 
0.0234375 
0.0234375 
0.0234375 
0.0234375 
0.0234375 
0.0234375 
0.0234375 
0.0234375 
0.0234375 
0.0234375 
0.0234375 
0.0234375 
0.0234375 
0.0234375 
0.0234375 
0.0234375 
0.0234375 
0.0234375 
0.0234375 
0.0234375 
0.0234375 
0.0234375 
0.0234375 
0.0234375 
0.0234375 
0.0234375 
0.0234375 
0.0234375 
0.0234375 
VECTORS weight double
0 0 0 
0 0 0 
0 0 0 
0 0 0 
0 0 0 
0 0 0 
0 0 0 
0 0 0 
0 0 0 
0 0 0 
0 0 0 
0 0 0 
0 0 0 
0 0 0 
0 0 0 
0 0 0 
0 0 0 
0 0 0 
0 0 0 
0 0 0 
0 0 0 
0 0 0 
0 0 0 
0 0 0 
0 0 0 
0 0 0 
0 0 0 
0 0 0 
0 0 0 
0 0 0 
0 0 0 
0 0 0 
0 0 0 
0 0 0 
0 0 0 
0 0 0 
0 0 0 
0 0 0 
0 0 0 
0 0 0 
0 0 0 
0 0 0 
0 0 0 
0 0 0 
0 0 0 
0 0 0 
0 0 0 
0 0 0 
0 0 0 
0 0 0 
0 0 0 
0 0 0 
0 0 0 
0 0 0 
0 0 0 
0 0 0 
0 0 0 
0 0 0 
0 0 0 
0 0 0 
0 0 0 
0 0 0 
0 0 0 
0 0 0 
SCALARS P double 1
LOOKUP_TABLE default
700000000 
0 
0 
0 
0 
0 
0 
0 
0 
0 
0 
0 
0 
0 
0 
0 
0 
0 
0 
0 
0 
0 
0 
0 
0 
0 
0 
0 
0 
0 
0 
0 
0 
0 
0 
0 
0 
0 
0 
0 
0 
0 
0 
0 
0 
0 
0 
0 
0 
0 
0 
0 
0 
0 
0 
0 
0 
0 
0 
0 
0 
0 
0 
700000000 
SCALARS INJ int 1
LOOKUP_TABLE default
1 
0 
0 
0 
0 
0 
0 
0 
0 
0 
0 
0 
0 
0 
0 
0 
0 
0 
0 
0 
0 
0 
0 
0 
0 
0 
0 
0 
0 
0 
0 
0 
0 
0 
0 
0 
0 
0 
0 
0 
0 
0 
0 
0 
0 
0 
0 
0 
0 
0 
0 
0 
0 
0 
0 
0 
0 
0 
0 
0 
0 
0 
0 
0 
SCALARS PROD int 1
LOOKUP_TABLE default
0 
0 
0 
0 
0 
0 
0 
0 
0 
0 
0 
0 
0 
0 
0 
0 
0 
0 
0 
0 
0 
0 
0 
0 
0 
0 
0 
0 
0 
0 
0 
0 
0 
0 
0 
0 
0 
0 
0 
0 
0 
0 
0 
0 
0 
0 
0 
0 
0 
0 
0 
0 
0 
0 
0 
0 
0 
0 
0 
0 
0 
0 
0 
1 
