# vtk DataFile Version 3.0
MOAB 5.1.1
ASCII
DATASET UNSTRUCTURED_GRID
POINTS 404 double
0 0 0
0 0 1
0 1 1
0 1 0
1.5 0 0
1.5 0 1
1.5 1 1
1.5 1 0
0.015 0 0
0.03 0 0
0.045 0 0
0.06 0 0
0.075 0 0
0.09 0 0
0.105 0 0
0.12 0 0
0.135 0 0
0.15 0 0
0.165 0 0
0.18 0 0
0.195 0 0
0.21 0 0
0.225 0 0
0.24 0 0
0.255 0 0
0.27 0 0
0.285 0 0
0.3 0 0
0.315 0 0
0.33 0 0
0.345 0 0
0.36 0 0
0.375 0 0
0.39 0 0
0.405 0 0
0.42 0 0
0.435 0 0
0.45 0 0
0.465 0 0
0.48 0 0
0.495 0 0
0.51 0 0
0.525 0 0
0.54 0 0
0.555 0 0
0.57 0 0
0.585 0 0
0.6 0 0
0.615 0 0
0.63 0 0
0.645 0 0
0.66 0 0
0.675 0 0
0.69 0 0
0.705 0 0
0.72 0 0
0.735 0 0
0.75 0 0
0.765 0 0
0.78 0 0
0.795 0 0
0.81 0 0
0.825 0 0
0.84 0 0
0.855 0 0
0.87 0 0
0.885 0 0
0.9 0 0
0.915 0 0
0.93 0 0
0.945 0 0
0.96 0 0
0.975 0 0
0.99 0 0
1.005 0 0
1.02 0 0
1.035 0 0
1.05 0 0
1.065 0 0
1.08 0 0
1.095 0 0
1.11 0 0
1.125 0 0
1.14 0 0
1.155 0 0
1.17 0 0
1.185 0 0
1.2 0 0
1.215 0 0
1.23 0 0
1.245 0 0
1.26 0 0
1.275 0 0
1.29 0 0
1.305 0 0
1.32 0 0
1.335 0 0
1.35 0 0
1.365 0 0
1.38 0 0
1.395 0 0
1.41 0 0
1.425 0 0
1.44 0 0
1.455 0 0
1.47 0 0
1.485 0 0
0.015 0 1
0.03 0 1
0.045 0 1
0.06 0 1
0.075 0 1
0.09 0 1
0.105 0 1
0.12 0 1
0.135 0 1
0.15 0 1
0.165 0 1
0.18 0 1
0.195 0 1
0.21 0 1
0.225 0 1
0.24 0 1
0.255 0 1
0.27 0 1
0.285 0 1
0.3 0 1
0.315 0 1
0.33 0 1
0.345 0 1
0.36 0 1
0.375 0 1
0.39 0 1
0.405 0 1
0.42 0 1
0.435 0 1
0.45 0 1
0.465 0 1
0.48 0 1
0.495 0 1
0.51 0 1
0.525 0 1
0.54 0 1
0.555 0 1
0.57 0 1
0.585 0 1
0.6 0 1
0.615 0 1
0.63 0 1
0.645 0 1
0.66 0 1
0.675 0 1
0.69 0 1
0.705 0 1
0.72 0 1
0.735 0 1
0.75 0 1
0.765 0 1
0.78 0 1
0.795 0 1
0.81 0 1
0.825 0 1
0.84 0 1
0.855 0 1
0.87 0 1
0.885 0 1
0.9 0 1
0.915 0 1
0.93 0 1
0.945 0 1
0.96 0 1
0.975 0 1
0.99 0 1
1.005 0 1
1.02 0 1
1.035 0 1
1.05 0 1
1.065 0 1
1.08 0 1
1.095 0 1
1.11 0 1
1.125 0 1
1.14 0 1
1.155 0 1
1.17 0 1
1.185 0 1
1.2 0 1
1.215 0 1
1.23 0 1
1.245 0 1
1.26 0 1
1.275 0 1
1.29 0 1
1.305 0 1
1.32 0 1
1.335 0 1
1.35 0 1
1.365 0 1
1.38 0 1
1.395 0 1
1.41 0 1
1.425 0 1
1.44 0 1
1.455 0 1
1.47 0 1
1.485 0 1
0.015 1 1
0.03 1 1
0.045 1 1
0.06 1 1
0.075 1 1
0.09 1 1
0.105 1 1
0.12 1 1
0.135 1 1
0.15 1 1
0.165 1 1
0.18 1 1
0.195 1 1
0.21 1 1
0.225 1 1
0.24 1 1
0.255 1 1
0.27 1 1
0.285 1 1
0.3 1 1
0.315 1 1
0.33 1 1
0.345 1 1
0.36 1 1
0.375 1 1
0.39 1 1
0.405 1 1
0.42 1 1
0.435 1 1
0.45 1 1
0.465 1 1
0.48 1 1
0.495 1 1
0.51 1 1
0.525 1 1
0.54 1 1
0.555 1 1
0.57 1 1
0.585 1 1
0.6 1 1
0.615 1 1
0.63 1 1
0.645 1 1
0.66 1 1
0.675 1 1
0.69 1 1
0.705 1 1
0.72 1 1
0.735 1 1
0.75 1 1
0.765 1 1
0.78 1 1
0.795 1 1
0.81 1 1
0.825 1 1
0.84 1 1
0.855 1 1
0.87 1 1
0.885 1 1
0.9 1 1
0.915 1 1
0.93 1 1
0.945 1 1
0.96 1 1
0.975 1 1
0.99 1 1
1.005 1 1
1.02 1 1
1.035 1 1
1.05 1 1
1.065 1 1
1.08 1 1
1.095 1 1
1.11 1 1
1.125 1 1
1.14 1 1
1.155 1 1
1.17 1 1
1.185 1 1
1.2 1 1
1.215 1 1
1.23 1 1
1.245 1 1
1.26 1 1
1.275 1 1
1.29 1 1
1.305 1 1
1.32 1 1
1.335 1 1
1.35 1 1
1.365 1 1
1.38 1 1
1.395 1 1
1.41 1 1
1.425 1 1
1.44 1 1
1.455 1 1
1.47 1 1
1.485 1 1
0.015 1 0
0.03 1 0
0.045 1 0
0.06 1 0
0.075 1 0
0.09 1 0
0.105 1 0
0.12 1 0
0.135 1 0
0.15 1 0
0.165 1 0
0.18 1 0
0.195 1 0
0.21 1 0
0.225 1 0
0.24 1 0
0.255 1 0
0.27 1 0
0.285 1 0
0.3 1 0
0.315 1 0
0.33 1 0
0.345 1 0
0.36 1 0
0.375 1 0
0.39 1 0
0.405 1 0
0.42 1 0
0.435 1 0
0.45 1 0
0.465 1 0
0.48 1 0
0.495 1 0
0.51 1 0
0.525 1 0
0.54 1 0
0.555 1 0
0.57 1 0
0.585 1 0
0.6 1 0
0.615 1 0
0.63 1 0
0.645 1 0
0.66 1 0
0.675 1 0
0.69 1 0
0.705 1 0
0.72 1 0
0.735 1 0
0.75 1 0
0.765 1 0
0.78 1 0
0.795 1 0
0.81 1 0
0.825 1 0
0.84 1 0
0.855 1 0
0.87 1 0
0.885 1 0
0.9 1 0
0.915 1 0
0.93 1 0
0.945 1 0
0.96 1 0
0.975 1 0
0.99 1 0
1.005 1 0
1.02 1 0
1.035 1 0
1.05 1 0
1.065 1 0
1.08 1 0
1.095 1 0
1.11 1 0
1.125 1 0
1.14 1 0
1.155 1 0
1.17 1 0
1.185 1 0
1.2 1 0
1.215 1 0
1.23 1 0
1.245 1 0
1.26 1 0
1.275 1 0
1.29 1 0
1.305 1 0
1.32 1 0
1.335 1 0
1.35 1 0
1.365 1 0
1.38 1 0
1.395 1 0
1.41 1 0
1.425 1 0
1.44 1 0
1.455 1 0
1.47 1 0
1.485 1 0
CELLS 100 900
8 2 1 0 3 206 107 8 305
8 206 107 8 305 207 108 9 306
8 207 108 9 306 208 109 10 307
8 208 109 10 307 209 110 11 308
8 209 110 11 308 210 111 12 309
8 210 111 12 309 211 112 13 310
8 211 112 13 310 212 113 14 311
8 212 113 14 311 213 114 15 312
8 213 114 15 312 214 115 16 313
8 214 115 16 313 215 116 17 314
8 215 116 17 314 216 117 18 315
8 216 117 18 315 217 118 19 316
8 217 118 19 316 218 119 20 317
8 218 119 20 317 219 120 21 318
8 219 120 21 318 220 121 22 319
8 220 121 22 319 221 122 23 320
8 221 122 23 320 222 123 24 321
8 222 123 24 321 223 124 25 322
8 223 124 25 322 224 125 26 323
8 224 125 26 323 225 126 27 324
8 225 126 27 324 226 127 28 325
8 226 127 28 325 227 128 29 326
8 227 128 29 326 228 129 30 327
8 228 129 30 327 229 130 31 328
8 229 130 31 328 230 131 32 329
8 230 131 32 329 231 132 33 330
8 231 132 33 330 232 133 34 331
8 232 133 34 331 233 134 35 332
8 233 134 35 332 234 135 36 333
8 234 135 36 333 235 136 37 334
8 235 136 37 334 236 137 38 335
8 236 137 38 335 237 138 39 336
8 237 138 39 336 238 139 40 337
8 238 139 40 337 239 140 41 338
8 239 140 41 338 240 141 42 339
8 240 141 42 339 241 142 43 340
8 241 142 43 340 242 143 44 341
8 242 143 44 341 243 144 45 342
8 243 144 45 342 244 145 46 343
8 244 145 46 343 245 146 47 344
8 245 146 47 344 246 147 48 345
8 246 147 48 345 247 148 49 346
8 247 148 49 346 248 149 50 347
8 248 149 50 347 249 150 51 348
8 249 150 51 348 250 151 52 349
8 250 151 52 349 251 152 53 350
8 251 152 53 350 252 153 54 351
8 252 153 54 351 253 154 55 352
8 253 154 55 352 254 155 56 353
8 254 155 56 353 255 156 57 354
8 255 156 57 354 256 157 58 355
8 256 157 58 355 257 158 59 356
8 257 158 59 356 258 159 60 357
8 258 159 60 357 259 160 61 358
8 259 160 61 358 260 161 62 359
8 260 161 62 359 261 162 63 360
8 261 162 63 360 262 163 64 361
8 262 163 64 361 263 164 65 362
8 263 164 65 362 264 165 66 363
8 264 165 66 363 265 166 67 364
8 265 166 67 364 266 167 68 365
8 266 167 68 365 267 168 69 366
8 267 168 69 366 268 169 70 367
8 268 169 70 367 269 170 71 368
8 269 170 71 368 270 171 72 369
8 270 171 72 369 271 172 73 370
8 271 172 73 370 272 173 74 371
8 272 173 74 371 273 174 75 372
8 273 174 75 372 274 175 76 373
8 274 175 76 373 275 176 77 374
8 275 176 77 374 276 177 78 375
8 276 177 78 375 277 178 79 376
8 277 178 79 376 278 179 80 377
8 278 179 80 377 279 180 81 378
8 279 180 81 378 280 181 82 379
8 280 181 82 379 281 182 83 380
8 281 182 83 380 282 183 84 381
8 282 183 84 381 283 184 85 382
8 283 184 85 382 284 185 86 383
8 284 185 86 383 285 186 87 384
8 285 186 87 384 286 187 88 385
8 286 187 88 385 287 188 89 386
8 287 188 89 386 288 189 90 387
8 288 189 90 387 289 190 91 388
8 289 190 91 388 290 191 92 389
8 290 191 92 389 291 192 93 390
8 291 192 93 390 292 193 94 391
8 292 193 94 391 293 194 95 392
8 293 194 95 392 294 195 96 393
8 294 195 96 393 295 196 97 394
8 295 196 97 394 296 197 98 395
8 296 197 98 395 297 198 99 396
8 297 198 99 396 298 199 100 397
8 298 199 100 397 299 200 101 398
8 299 200 101 398 300 201 102 399
8 300 201 102 399 301 202 103 400
8 301 202 103 400 302 203 104 401
8 302 203 104 401 303 204 105 402
8 303 204 105 402 304 205 106 403
8 304 205 106 403 6 5 4 7
CELL_TYPES 100
12
12
12
12
12
12
12
12
12
12
12
12
12
12
12
12
12
12
12
12
12
12
12
12
12
12
12
12
12
12
12
12
12
12
12
12
12
12
12
12
12
12
12
12
12
12
12
12
12
12
12
12
12
12
12
12
12
12
12
12
12
12
12
12
12
12
12
12
12
12
12
12
12
12
12
12
12
12
12
12
12
12
12
12
12
12
12
12
12
12
12
12
12
12
12
12
12
12
12
12
POINT_DATA 404
SCALARS GLOBAL_ID int 1
LOOKUP_TABLE default
0 
1 
2 
3 
4 
5 
6 
7 
8 
9 
10 
11 
12 
13 
14 
15 
16 
17 
18 
19 
20 
21 
22 
23 
24 
25 
26 
27 
28 
29 
30 
31 
32 
33 
34 
35 
36 
37 
38 
39 
40 
41 
42 
43 
44 
45 
46 
47 
48 
49 
50 
51 
52 
53 
54 
55 
56 
57 
58 
59 
60 
61 
62 
63 
64 
65 
66 
67 
68 
69 
70 
71 
72 
73 
74 
75 
76 
77 
78 
79 
80 
81 
82 
83 
84 
85 
86 
87 
88 
89 
90 
91 
92 
93 
94 
95 
96 
97 
98 
99 
100 
101 
102 
103 
104 
105 
106 
107 
108 
109 
110 
111 
112 
113 
114 
115 
116 
117 
118 
119 
120 
121 
122 
123 
124 
125 
126 
127 
128 
129 
130 
131 
132 
133 
134 
135 
136 
137 
138 
139 
140 
141 
142 
143 
144 
145 
146 
147 
148 
149 
150 
151 
152 
153 
154 
155 
156 
157 
158 
159 
160 
161 
162 
163 
164 
165 
166 
167 
168 
169 
170 
171 
172 
173 
174 
175 
176 
177 
178 
179 
180 
181 
182 
183 
184 
185 
186 
187 
188 
189 
190 
191 
192 
193 
194 
195 
196 
197 
198 
199 
200 
201 
202 
203 
204 
205 
206 
207 
208 
209 
210 
211 
212 
213 
214 
215 
216 
217 
218 
219 
220 
221 
222 
223 
224 
225 
226 
227 
228 
229 
230 
231 
232 
233 
234 
235 
236 
237 
238 
239 
240 
241 
242 
243 
244 
245 
246 
247 
248 
249 
250 
251 
252 
253 
254 
255 
256 
257 
258 
259 
260 
261 
262 
263 
264 
265 
266 
267 
268 
269 
270 
271 
272 
273 
274 
275 
276 
277 
278 
279 
280 
281 
282 
283 
284 
285 
286 
287 
288 
289 
290 
291 
292 
293 
294 
295 
296 
297 
298 
299 
300 
301 
302 
303 
304 
305 
306 
307 
308 
309 
310 
311 
312 
313 
314 
315 
316 
317 
318 
319 
320 
321 
322 
323 
324 
325 
326 
327 
328 
329 
330 
331 
332 
333 
334 
335 
336 
337 
338 
339 
340 
341 
342 
343 
344 
345 
346 
347 
348 
349 
350 
351 
352 
353 
354 
355 
356 
357 
358 
359 
360 
361 
362 
363 
364 
365 
366 
367 
368 
369 
370 
371 
372 
373 
374 
375 
376 
377 
378 
379 
380 
381 
382 
383 
384 
385 
386 
387 
388 
389 
390 
391 
392 
393 
394 
395 
396 
397 
398 
399 
400 
401 
402 
403 
VECTORS NODES double
0 0 0 
0 0 1 
0 1 1 
0 1 0 
1.5 0 0 
1.5 0 1 
1.5 1 1 
1.5 1 0 
0.015 0 0 
0.03 0 0 
0.045 0 0 
0.06 0 0 
0.075 0 0 
0.09 0 0 
0.105 0 0 
0.12 0 0 
0.135 0 0 
0.15 0 0 
0.165 0 0 
0.18 0 0 
0.195 0 0 
0.21 0 0 
0.225 0 0 
0.24 0 0 
0.255 0 0 
0.27 0 0 
0.285 0 0 
0.3 0 0 
0.315 0 0 
0.33 0 0 
0.345 0 0 
0.36 0 0 
0.375 0 0 
0.39 0 0 
0.405 0 0 
0.42 0 0 
0.435 0 0 
0.45 0 0 
0.465 0 0 
0.48 0 0 
0.495 0 0 
0.51 0 0 
0.525 0 0 
0.54 0 0 
0.555 0 0 
0.57 0 0 
0.585 0 0 
0.6 0 0 
0.615 0 0 
0.63 0 0 
0.645 0 0 
0.66 0 0 
0.675 0 0 
0.69 0 0 
0.705 0 0 
0.72 0 0 
0.735 0 0 
0.75 0 0 
0.765 0 0 
0.78 0 0 
0.795 0 0 
0.81 0 0 
0.825 0 0 
0.84 0 0 
0.855 0 0 
0.87 0 0 
0.885 0 0 
0.9 0 0 
0.915 0 0 
0.93 0 0 
0.945 0 0 
0.96 0 0 
0.975 0 0 
0.99 0 0 
1.005 0 0 
1.02 0 0 
1.035 0 0 
1.05 0 0 
1.065 0 0 
1.08 0 0 
1.095 0 0 
1.11 0 0 
1.125 0 0 
1.14 0 0 
1.155 0 0 
1.17 0 0 
1.185 0 0 
1.2 0 0 
1.215 0 0 
1.23 0 0 
1.245 0 0 
1.26 0 0 
1.275 0 0 
1.29 0 0 
1.305 0 0 
1.32 0 0 
1.335 0 0 
1.35 0 0 
1.365 0 0 
1.38 0 0 
1.395 0 0 
1.41 0 0 
1.425 0 0 
1.44 0 0 
1.455 0 0 
1.47 0 0 
1.485 0 0 
0.015 0 1 
0.03 0 1 
0.045 0 1 
0.06 0 1 
0.075 0 1 
0.09 0 1 
0.105 0 1 
0.12 0 1 
0.135 0 1 
0.15 0 1 
0.165 0 1 
0.18 0 1 
0.195 0 1 
0.21 0 1 
0.225 0 1 
0.24 0 1 
0.255 0 1 
0.27 0 1 
0.285 0 1 
0.3 0 1 
0.315 0 1 
0.33 0 1 
0.345 0 1 
0.36 0 1 
0.375 0 1 
0.39 0 1 
0.405 0 1 
0.42 0 1 
0.435 0 1 
0.45 0 1 
0.465 0 1 
0.48 0 1 
0.495 0 1 
0.51 0 1 
0.525 0 1 
0.54 0 1 
0.555 0 1 
0.57 0 1 
0.585 0 1 
0.6 0 1 
0.615 0 1 
0.63 0 1 
0.645 0 1 
0.66 0 1 
0.675 0 1 
0.69 0 1 
0.705 0 1 
0.72 0 1 
0.735 0 1 
0.75 0 1 
0.765 0 1 
0.78 0 1 
0.795 0 1 
0.81 0 1 
0.825 0 1 
0.84 0 1 
0.855 0 1 
0.87 0 1 
0.885 0 1 
0.9 0 1 
0.915 0 1 
0.93 0 1 
0.945 0 1 
0.96 0 1 
0.975 0 1 
0.99 0 1 
1.005 0 1 
1.02 0 1 
1.035 0 1 
1.05 0 1 
1.065 0 1 
1.08 0 1 
1.095 0 1 
1.11 0 1 
1.125 0 1 
1.14 0 1 
1.155 0 1 
1.17 0 1 
1.185 0 1 
1.2 0 1 
1.215 0 1 
1.23 0 1 
1.245 0 1 
1.26 0 1 
1.275 0 1 
1.29 0 1 
1.305 0 1 
1.32 0 1 
1.335 0 1 
1.35 0 1 
1.365 0 1 
1.38 0 1 
1.395 0 1 
1.41 0 1 
1.425 0 1 
1.44 0 1 
1.455 0 1 
1.47 0 1 
1.485 0 1 
0.015 1 1 
0.03 1 1 
0.045 1 1 
0.06 1 1 
0.075 1 1 
0.09 1 1 
0.105 1 1 
0.12 1 1 
0.135 1 1 
0.15 1 1 
0.165 1 1 
0.18 1 1 
0.195 1 1 
0.21 1 1 
0.225 1 1 
0.24 1 1 
0.255 1 1 
0.27 1 1 
0.285 1 1 
0.3 1 1 
0.315 1 1 
0.33 1 1 
0.345 1 1 
0.36 1 1 
0.375 1 1 
0.39 1 1 
0.405 1 1 
0.42 1 1 
0.435 1 1 
0.45 1 1 
0.465 1 1 
0.48 1 1 
0.495 1 1 
0.51 1 1 
0.525 1 1 
0.54 1 1 
0.555 1 1 
0.57 1 1 
0.585 1 1 
0.6 1 1 
0.615 1 1 
0.63 1 1 
0.645 1 1 
0.66 1 1 
0.675 1 1 
0.69 1 1 
0.705 1 1 
0.72 1 1 
0.735 1 1 
0.75 1 1 
0.765 1 1 
0.78 1 1 
0.795 1 1 
0.81 1 1 
0.825 1 1 
0.84 1 1 
0.855 1 1 
0.87 1 1 
0.885 1 1 
0.9 1 1 
0.915 1 1 
0.93 1 1 
0.945 1 1 
0.96 1 1 
0.975 1 1 
0.99 1 1 
1.005 1 1 
1.02 1 1 
1.035 1 1 
1.05 1 1 
1.065 1 1 
1.08 1 1 
1.095 1 1 
1.11 1 1 
1.125 1 1 
1.14 1 1 
1.155 1 1 
1.17 1 1 
1.185 1 1 
1.2 1 1 
1.215 1 1 
1.23 1 1 
1.245 1 1 
1.26 1 1 
1.275 1 1 
1.29 1 1 
1.305 1 1 
1.32 1 1 
1.335 1 1 
1.35 1 1 
1.365 1 1 
1.38 1 1 
1.395 1 1 
1.41 1 1 
1.425 1 1 
1.44 1 1 
1.455 1 1 
1.47 1 1 
1.485 1 1 
0.015 1 0 
0.03 1 0 
0.045 1 0 
0.06 1 0 
0.075 1 0 
0.09 1 0 
0.105 1 0 
0.12 1 0 
0.135 1 0 
0.15 1 0 
0.165 1 0 
0.18 1 0 
0.195 1 0 
0.21 1 0 
0.225 1 0 
0.24 1 0 
0.255 1 0 
0.27 1 0 
0.285 1 0 
0.3 1 0 
0.315 1 0 
0.33 1 0 
0.345 1 0 
0.36 1 0 
0.375 1 0 
0.39 1 0 
0.405 1 0 
0.42 1 0 
0.435 1 0 
0.45 1 0 
0.465 1 0 
0.48 1 0 
0.495 1 0 
0.51 1 0 
0.525 1 0 
0.54 1 0 
0.555 1 0 
0.57 1 0 
0.585 1 0 
0.6 1 0 
0.615 1 0 
0.63 1 0 
0.645 1 0 
0.66 1 0 
0.675 1 0 
0.69 1 0 
0.705 1 0 
0.72 1 0 
0.735 1 0 
0.75 1 0 
0.765 1 0 
0.78 1 0 
0.795 1 0 
0.81 1 0 
0.825 1 0 
0.84 1 0 
0.855 1 0 
0.87 1 0 
0.885 1 0 
0.9 1 0 
0.915 1 0 
0.93 1 0 
0.945 1 0 
0.96 1 0 
0.975 1 0 
0.99 1 0 
1.005 1 0 
1.02 1 0 
1.035 1 0 
1.05 1 0 
1.065 1 0 
1.08 1 0 
1.095 1 0 
1.11 1 0 
1.125 1 0 
1.14 1 0 
1.155 1 0 
1.17 1 0 
1.185 1 0 
1.2 1 0 
1.215 1 0 
1.23 1 0 
1.245 1 0 
1.26 1 0 
1.275 1 0 
1.29 1 0 
1.305 1 0 
1.32 1 0 
1.335 1 0 
1.35 1 0 
1.365 1 0 
1.38 1 0 
1.395 1 0 
1.41 1 0 
1.425 1 0 
1.44 1 0 
1.455 1 0 
1.47 1 0 
1.485 1 0 
VECTORS centroid_nodes double
0 0 0 
0 0 1 
0 1 1 
0 1 0 
1.5 0 0 
1.5 0 1 
1.5 1 1 
1.5 1 0 
0.015 0 0 
0.03 0 0 
0.045 0 0 
0.06 0 0 
0.075 0 0 
0.09 0 0 
0.105 0 0 
0.12 0 0 
0.135 0 0 
0.15 0 0 
0.165 0 0 
0.18 0 0 
0.195 0 0 
0.21 0 0 
0.225 0 0 
0.24 0 0 
0.255 0 0 
0.27 0 0 
0.285 0 0 
0.3 0 0 
0.315 0 0 
0.33 0 0 
0.345 0 0 
0.36 0 0 
0.375 0 0 
0.39 0 0 
0.405 0 0 
0.42 0 0 
0.435 0 0 
0.45 0 0 
0.465 0 0 
0.48 0 0 
0.495 0 0 
0.51 0 0 
0.525 0 0 
0.54 0 0 
0.555 0 0 
0.57 0 0 
0.585 0 0 
0.6 0 0 
0.615 0 0 
0.63 0 0 
0.645 0 0 
0.66 0 0 
0.675 0 0 
0.69 0 0 
0.705 0 0 
0.72 0 0 
0.735 0 0 
0.75 0 0 
0.765 0 0 
0.78 0 0 
0.795 0 0 
0.81 0 0 
0.825 0 0 
0.84 0 0 
0.855 0 0 
0.87 0 0 
0.885 0 0 
0.9 0 0 
0.915 0 0 
0.93 0 0 
0.945 0 0 
0.96 0 0 
0.975 0 0 
0.99 0 0 
1.005 0 0 
1.02 0 0 
1.035 0 0 
1.05 0 0 
1.065 0 0 
1.08 0 0 
1.095 0 0 
1.11 0 0 
1.125 0 0 
1.14 0 0 
1.155 0 0 
1.17 0 0 
1.185 0 0 
1.2 0 0 
1.215 0 0 
1.23 0 0 
1.245 0 0 
1.26 0 0 
1.275 0 0 
1.29 0 0 
1.305 0 0 
1.32 0 0 
1.335 0 0 
1.35 0 0 
1.365 0 0 
1.38 0 0 
1.395 0 0 
1.41 0 0 
1.425 0 0 
1.44 0 0 
1.455 0 0 
1.47 0 0 
1.485 0 0 
0.015 0 1 
0.03 0 1 
0.045 0 1 
0.06 0 1 
0.075 0 1 
0.09 0 1 
0.105 0 1 
0.12 0 1 
0.135 0 1 
0.15 0 1 
0.165 0 1 
0.18 0 1 
0.195 0 1 
0.21 0 1 
0.225 0 1 
0.24 0 1 
0.255 0 1 
0.27 0 1 
0.285 0 1 
0.3 0 1 
0.315 0 1 
0.33 0 1 
0.345 0 1 
0.36 0 1 
0.375 0 1 
0.39 0 1 
0.405 0 1 
0.42 0 1 
0.435 0 1 
0.45 0 1 
0.465 0 1 
0.48 0 1 
0.495 0 1 
0.51 0 1 
0.525 0 1 
0.54 0 1 
0.555 0 1 
0.57 0 1 
0.585 0 1 
0.6 0 1 
0.615 0 1 
0.63 0 1 
0.645 0 1 
0.66 0 1 
0.675 0 1 
0.69 0 1 
0.705 0 1 
0.72 0 1 
0.735 0 1 
0.75 0 1 
0.765 0 1 
0.78 0 1 
0.795 0 1 
0.81 0 1 
0.825 0 1 
0.84 0 1 
0.855 0 1 
0.87 0 1 
0.885 0 1 
0.9 0 1 
0.915 0 1 
0.93 0 1 
0.945 0 1 
0.96 0 1 
0.975 0 1 
0.99 0 1 
1.005 0 1 
1.02 0 1 
1.035 0 1 
1.05 0 1 
1.065 0 1 
1.08 0 1 
1.095 0 1 
1.11 0 1 
1.125 0 1 
1.14 0 1 
1.155 0 1 
1.17 0 1 
1.185 0 1 
1.2 0 1 
1.215 0 1 
1.23 0 1 
1.245 0 1 
1.26 0 1 
1.275 0 1 
1.29 0 1 
1.305 0 1 
1.32 0 1 
1.335 0 1 
1.35 0 1 
1.365 0 1 
1.38 0 1 
1.395 0 1 
1.41 0 1 
1.425 0 1 
1.44 0 1 
1.455 0 1 
1.47 0 1 
1.485 0 1 
0.015 1 1 
0.03 1 1 
0.045 1 1 
0.06 1 1 
0.075 1 1 
0.09 1 1 
0.105 1 1 
0.12 1 1 
0.135 1 1 
0.15 1 1 
0.165 1 1 
0.18 1 1 
0.195 1 1 
0.21 1 1 
0.225 1 1 
0.24 1 1 
0.255 1 1 
0.27 1 1 
0.285 1 1 
0.3 1 1 
0.315 1 1 
0.33 1 1 
0.345 1 1 
0.36 1 1 
0.375 1 1 
0.39 1 1 
0.405 1 1 
0.42 1 1 
0.435 1 1 
0.45 1 1 
0.465 1 1 
0.48 1 1 
0.495 1 1 
0.51 1 1 
0.525 1 1 
0.54 1 1 
0.555 1 1 
0.57 1 1 
0.585 1 1 
0.6 1 1 
0.615 1 1 
0.63 1 1 
0.645 1 1 
0.66 1 1 
0.675 1 1 
0.69 1 1 
0.705 1 1 
0.72 1 1 
0.735 1 1 
0.75 1 1 
0.765 1 1 
0.78 1 1 
0.795 1 1 
0.81 1 1 
0.825 1 1 
0.84 1 1 
0.855 1 1 
0.87 1 1 
0.885 1 1 
0.9 1 1 
0.915 1 1 
0.93 1 1 
0.945 1 1 
0.96 1 1 
0.975 1 1 
0.99 1 1 
1.005 1 1 
1.02 1 1 
1.035 1 1 
1.05 1 1 
1.065 1 1 
1.08 1 1 
1.095 1 1 
1.11 1 1 
1.125 1 1 
1.14 1 1 
1.155 1 1 
1.17 1 1 
1.185 1 1 
1.2 1 1 
1.215 1 1 
1.23 1 1 
1.245 1 1 
1.26 1 1 
1.275 1 1 
1.29 1 1 
1.305 1 1 
1.32 1 1 
1.335 1 1 
1.35 1 1 
1.365 1 1 
1.38 1 1 
1.395 1 1 
1.41 1 1 
1.425 1 1 
1.44 1 1 
1.455 1 1 
1.47 1 1 
1.485 1 1 
0.015 1 0 
0.03 1 0 
0.045 1 0 
0.06 1 0 
0.075 1 0 
0.09 1 0 
0.105 1 0 
0.12 1 0 
0.135 1 0 
0.15 1 0 
0.165 1 0 
0.18 1 0 
0.195 1 0 
0.21 1 0 
0.225 1 0 
0.24 1 0 
0.255 1 0 
0.27 1 0 
0.285 1 0 
0.3 1 0 
0.315 1 0 
0.33 1 0 
0.345 1 0 
0.36 1 0 
0.375 1 0 
0.39 1 0 
0.405 1 0 
0.42 1 0 
0.435 1 0 
0.45 1 0 
0.465 1 0 
0.48 1 0 
0.495 1 0 
0.51 1 0 
0.525 1 0 
0.54 1 0 
0.555 1 0 
0.57 1 0 
0.585 1 0 
0.6 1 0 
0.615 1 0 
0.63 1 0 
0.645 1 0 
0.66 1 0 
0.675 1 0 
0.69 1 0 
0.705 1 0 
0.72 1 0 
0.735 1 0 
0.75 1 0 
0.765 1 0 
0.78 1 0 
0.795 1 0 
0.81 1 0 
0.825 1 0 
0.84 1 0 
0.855 1 0 
0.87 1 0 
0.885 1 0 
0.9 1 0 
0.915 1 0 
0.93 1 0 
0.945 1 0 
0.96 1 0 
0.975 1 0 
0.99 1 0 
1.005 1 0 
1.02 1 0 
1.035 1 0 
1.05 1 0 
1.065 1 0 
1.08 1 0 
1.095 1 0 
1.11 1 0 
1.125 1 0 
1.14 1 0 
1.155 1 0 
1.17 1 0 
1.185 1 0 
1.2 1 0 
1.215 1 0 
1.23 1 0 
1.245 1 0 
1.26 1 0 
1.275 1 0 
1.29 1 0 
1.305 1 0 
1.32 1 0 
1.335 1 0 
1.35 1 0 
1.365 1 0 
1.38 1 0 
1.395 1 0 
1.41 1 0 
1.425 1 0 
1.44 1 0 
1.455 1 0 
1.47 1 0 
1.485 1 0 
CELL_DATA 100
SCALARS GLOBAL_ID int 1
LOOKUP_TABLE default
0 
1 
2 
3 
4 
5 
6 
7 
8 
9 
10 
11 
12 
13 
14 
15 
16 
17 
18 
19 
20 
21 
22 
23 
24 
25 
26 
27 
28 
29 
30 
31 
32 
33 
34 
35 
36 
37 
38 
39 
40 
41 
42 
43 
44 
45 
46 
47 
48 
49 
50 
51 
52 
53 
54 
55 
56 
57 
58 
59 
60 
61 
62 
63 
64 
65 
66 
67 
68 
69 
70 
71 
72 
73 
74 
75 
76 
77 
78 
79 
80 
81 
82 
83 
84 
85 
86 
87 
88 
89 
90 
91 
92 
93 
94 
95 
96 
97 
98 
99 
VECTORS centroid_volumes double
0.0075 0.5 0.5 
0.0225 0.5 0.5 
0.0375 0.5 0.5 
0.0525 0.5 0.5 
0.0675 0.5 0.5 
0.0825 0.5 0.5 
0.0975 0.5 0.5 
0.1125 0.5 0.5 
0.1275 0.5 0.5 
0.1425 0.5 0.5 
0.1575 0.5 0.5 
0.1725 0.5 0.5 
0.1875 0.5 0.5 
0.2025 0.5 0.5 
0.2175 0.5 0.5 
0.2325 0.5 0.5 
0.2475 0.5 0.5 
0.2625 0.5 0.5 
0.2775 0.5 0.5 
0.2925 0.5 0.5 
0.3075 0.5 0.5 
0.3225 0.5 0.5 
0.3375 0.5 0.5 
0.3525 0.5 0.5 
0.3675 0.5 0.5 
0.3825 0.5 0.5 
0.3975 0.5 0.5 
0.4125 0.5 0.5 
0.4275 0.5 0.5 
0.4425 0.5 0.5 
0.4575 0.5 0.5 
0.4725 0.5 0.5 
0.4875 0.5 0.5 
0.5025 0.5 0.5 
0.5175 0.5 0.5 
0.5325 0.5 0.5 
0.5475 0.5 0.5 
0.5625 0.5 0.5 
0.5775 0.5 0.5 
0.5925 0.5 0.5 
0.6075 0.5 0.5 
0.6225 0.5 0.5 
0.6375 0.5 0.5 
0.6525 0.5 0.5 
0.6675 0.5 0.5 
0.6825 0.5 0.5 
0.6975 0.5 0.5 
0.7125 0.5 0.5 
0.7275 0.5 0.5 
0.7425 0.5 0.5 
0.7575 0.5 0.5 
0.7725 0.5 0.5 
0.7875 0.5 0.5 
0.8025 0.5 0.5 
0.8175 0.5 0.5 
0.8325 0.5 0.5 
0.8475 0.5 0.5 
0.8625 0.5 0.5 
0.8775 0.5 0.5 
0.8925 0.5 0.5 
0.9075 0.5 0.5 
0.9225 0.5 0.5 
0.9375 0.5 0.5 
0.9525 0.5 0.5 
0.9675 0.5 0.5 
0.9825 0.5 0.5 
0.9975 0.5 0.5 
1.0125 0.5 0.5 
1.0275 0.5 0.5 
1.0425 0.5 0.5 
1.0575 0.5 0.5 
1.0725 0.5 0.5 
1.0875 0.5 0.5 
1.1025 0.5 0.5 
1.1175 0.5 0.5 
1.1325 0.5 0.5 
1.1475 0.5 0.5 
1.1625 0.5 0.5 
1.1775 0.5 0.5 
1.1925 0.5 0.5 
1.2075 0.5 0.5 
1.2225 0.5 0.5 
1.2375 0.5 0.5 
1.2525 0.5 0.5 
1.2675 0.5 0.5 
1.2825 0.5 0.5 
1.2975 0.5 0.5 
1.3125 0.5 0.5 
1.3275 0.5 0.5 
1.3425 0.5 0.5 
1.3575 0.5 0.5 
1.3725 0.5 0.5 
1.3875 0.5 0.5 
1.4025 0.5 0.5 
1.4175 0.5 0.5 
1.4325 0.5 0.5 
1.4475 0.5 0.5 
1.4625 0.5 0.5 
1.4775 0.5 0.5 
1.4925 0.5 0.5 
SCALARS flux_grav_volumes double 1
LOOKUP_TABLE default
0 
0 
0 
0 
0 
0 
0 
0 
0 
0 
0 
0 
0 
0 
0 
0 
0 
0 
0 
0 
0 
0 
0 
0 
0 
0 
0 
0 
0 
0 
0 
0 
0 
0 
0 
0 
0 
0 
0 
0 
0 
0 
0 
0 
0 
0 
0 
0 
0 
0 
0 
0 
0 
0 
0 
0 
0 
0 
0 
0 
0 
0 
0 
0 
0 
0 
0 
0 
0 
0 
0 
0 
0 
0 
0 
0 
0 
0 
0 
0 
0 
0 
0 
0 
0 
0 
0 
0 
0 
0 
0 
0 
0 
0 
0 
0 
0 
0 
0 
0 
SCALARS flux_o_volumes double 1
LOOKUP_TABLE default
0 
0 
0 
0 
0 
0 
0 
0 
0 
0 
0 
0 
0 
0 
0 
0 
0 
0 
0 
0 
0 
0 
0 
0 
0 
0 
0 
0 
0 
0 
0 
0 
0 
0 
0 
0 
0 
0 
0 
0 
0 
0 
0 
0 
0 
0 
0 
0 
0 
0 
0 
0 
0 
0 
0 
0 
0 
0 
0 
0 
0 
0 
0 
0 
0 
0 
0 
0 
0 
0 
0 
0 
0 
0 
0 
0 
0 
0 
0 
0 
0 
0 
0 
0 
0 
0 
0 
0 
0 
0 
0 
0 
0 
0 
0 
0 
0 
0 
0 
0 
SCALARS flux_volumes double 1
LOOKUP_TABLE default
0 
0 
0 
0 
0 
0 
0 
0 
0 
0 
0 
0 
0 
0 
0 
0 
0 
0 
0 
0 
0 
0 
0 
0 
0 
0 
0 
0 
0 
0 
0 
0 
0 
0 
0 
0 
0 
0 
0 
0 
0 
0 
0 
0 
0 
0 
0 
0 
0 
0 
0 
0 
0 
0 
0 
0 
0 
0 
0 
0 
0 
0 
0 
0 
0 
0 
0 
0 
0 
0 
0 
0 
0 
0 
0 
0 
0 
0 
0 
0 
0 
0 
0 
0 
0 
0 
0 
0 
0 
0 
0 
0 
0 
0 
0 
0 
0 
0 
0 
0 
SCALARS flux_volumes_test double 1
LOOKUP_TABLE default
0 
0 
0 
0 
0 
0 
0 
0 
0 
0 
0 
0 
0 
0 
0 
0 
0 
0 
0 
0 
0 
0 
0 
0 
0 
0 
0 
0 
0 
0 
0 
0 
0 
0 
0 
0 
0 
0 
0 
0 
0 
0 
0 
0 
0 
0 
0 
0 
0 
0 
0 
0 
0 
0 
0 
0 
0 
0 
0 
0 
0 
0 
0 
0 
0 
0 
0 
0 
0 
0 
0 
0 
0 
0 
0 
0 
0 
0 
0 
0 
0 
0 
0 
0 
0 
0 
0 
0 
0 
0 
0 
0 
0 
0 
0 
0 
0 
0 
0 
0 
SCALARS flux_w_volumes double 1
LOOKUP_TABLE default
0 
0 
0 
0 
0 
0 
0 
0 
0 
0 
0 
0 
0 
0 
0 
0 
0 
0 
0 
0 
0 
0 
0 
0 
0 
0 
0 
0 
0 
0 
0 
0 
0 
0 
0 
0 
0 
0 
0 
0 
0 
0 
0 
0 
0 
0 
0 
0 
0 
0 
0 
0 
0 
0 
0 
0 
0 
0 
0 
0 
0 
0 
0 
0 
0 
0 
0 
0 
0 
0 
0 
0 
0 
0 
0 
0 
0 
0 
0 
0 
0 
0 
0 
0 
0 
0 
0 
0 
0 
0 
0 
0 
0 
0 
0 
0 
0 
0 
0 
0 
SCALARS fw_vol double 1
LOOKUP_TABLE default
0 
0 
0 
0 
0 
0 
0 
0 
0 
0 
0 
0 
0 
0 
0 
0 
0 
0 
0 
0 
0 
0 
0 
0 
0 
0 
0 
0 
0 
0 
0 
0 
0 
0 
0 
0 
0 
0 
0 
0 
0 
0 
0 
0 
0 
0 
0 
0 
0 
0 
0 
0 
0 
0 
0 
0 
0 
0 
0 
0 
0 
0 
0 
0 
0 
0 
0 
0 
0 
0 
0 
0 
0 
0 
0 
0 
0 
0 
0 
0 
0 
0 
0 
0 
0 
0 
0 
0 
0 
0 
0 
0 
0 
0 
0 
0 
0 
0 
0 
0 
SCALARS gama double 1
LOOKUP_TABLE default
10000 
10000 
10000 
10000 
10000 
10000 
10000 
10000 
10000 
10000 
10000 
10000 
10000 
10000 
10000 
10000 
10000 
10000 
10000 
10000 
10000 
10000 
10000 
10000 
10000 
10000 
10000 
10000 
10000 
10000 
10000 
10000 
10000 
10000 
10000 
10000 
10000 
10000 
10000 
10000 
10000 
10000 
10000 
10000 
10000 
10000 
10000 
10000 
10000 
10000 
10000 
10000 
10000 
10000 
10000 
10000 
10000 
10000 
10000 
10000 
10000 
10000 
10000 
10000 
10000 
10000 
10000 
10000 
10000 
10000 
10000 
10000 
10000 
10000 
10000 
10000 
10000 
10000 
10000 
10000 
10000 
10000 
10000 
10000 
10000 
10000 
10000 
10000 
10000 
10000 
10000 
10000 
10000 
10000 
10000 
10000 
10000 
10000 
10000 
10000 
VECTORS hs double
0.015 1 1 
0.015 1 1 
0.015 1 1 
0.015 1 1 
0.015 1 1 
0.015 1 1 
0.015 1 1 
0.015 1 1 
0.015 1 1 
0.015 1 1 
0.015 1 1 
0.015 1 1 
0.015 1 1 
0.015 1 1 
0.015 1 1 
0.015 1 1 
0.015 1 1 
0.015 1 1 
0.015 1 1 
0.015 1 1 
0.015 1 1 
0.015 1 1 
0.015 1 1 
0.015 1 1 
0.015 1 1 
0.015 1 1 
0.015 1 1 
0.015 1 1 
0.015 1 1 
0.015 1 1 
0.015 1 1 
0.015 1 1 
0.015 1 1 
0.015 1 1 
0.015 1 1 
0.015 1 1 
0.015 1 1 
0.015 1 1 
0.015 1 1 
0.015 1 1 
0.015 1 1 
0.015 1 1 
0.015 1 1 
0.015 1 1 
0.015 1 1 
0.015 1 1 
0.015 1 1 
0.015 1 1 
0.015 1 1 
0.015 1 1 
0.015 1 1 
0.015 1 1 
0.015 1 1 
0.015 1 1 
0.015 1 1 
0.015 1 1 
0.015 1 1 
0.015 1 1 
0.015 1 1 
0.015 1 1 
0.015 1 1 
0.015 1 1 
0.015 1 1 
0.015 1 1 
0.015 1 1 
0.015 1 1 
0.015 1 1 
0.015 1 1 
0.015 1 1 
0.015 1 1 
0.015 1 1 
0.015 1 1 
0.015 1 1 
0.015 1 1 
0.015 1 1 
0.015 1 1 
0.015 1 1 
0.015 1 1 
0.015 1 1 
0.015 1 1 
0.015 1 1 
0.015 1 1 
0.015 1 1 
0.015 1 1 
0.015 1 1 
0.015 1 1 
0.015 1 1 
0.015 1 1 
0.015 1 1 
0.015 1 1 
0.015 1 1 
0.015 1 1 
0.015 1 1 
0.015 1 1 
0.015 1 1 
0.015 1 1 
0.015 1 1 
0.015 1 1 
0.015 1 1 
0.015 1 1 
SCALARS kro double 1
LOOKUP_TABLE default
0 
0 
0 
0 
0 
0 
0 
0 
0 
0 
0 
0 
0 
0 
0 
0 
0 
0 
0 
0 
0 
0 
0 
0 
0 
0 
0 
0 
0 
0 
0 
0 
0 
0 
0 
0 
0 
0 
0 
0 
0 
0 
0 
0 
0 
0 
0 
0 
0 
0 
0 
0 
0 
0 
0 
0 
0 
0 
0 
0 
0 
0 
0 
0 
0 
0 
0 
0 
0 
0 
0 
0 
0 
0 
0 
0 
0 
0 
0 
0 
0 
0 
0 
0 
0 
0 
0 
0 
0 
0 
0 
0 
0 
0 
0 
0 
0 
0 
0 
0 
SCALARS krw double 1
LOOKUP_TABLE default
0 
0 
0 
0 
0 
0 
0 
0 
0 
0 
0 
0 
0 
0 
0 
0 
0 
0 
0 
0 
0 
0 
0 
0 
0 
0 
0 
0 
0 
0 
0 
0 
0 
0 
0 
0 
0 
0 
0 
0 
0 
0 
0 
0 
0 
0 
0 
0 
0 
0 
0 
0 
0 
0 
0 
0 
0 
0 
0 
0 
0 
0 
0 
0 
0 
0 
0 
0 
0 
0 
0 
0 
0 
0 
0 
0 
0 
0 
0 
0 
0 
0 
0 
0 
0 
0 
0 
0 
0 
0 
0 
0 
0 
0 
0 
0 
0 
0 
0 
0 
SCALARS lambda_o double 1
LOOKUP_TABLE default
0 
0 
0 
0 
0 
0 
0 
0 
0 
0 
0 
0 
0 
0 
0 
0 
0 
0 
0 
0 
0 
0 
0 
0 
0 
0 
0 
0 
0 
0 
0 
0 
0 
0 
0 
0 
0 
0 
0 
0 
0 
0 
0 
0 
0 
0 
0 
0 
0 
0 
0 
0 
0 
0 
0 
0 
0 
0 
0 
0 
0 
0 
0 
0 
0 
0 
0 
0 
0 
0 
0 
0 
0 
0 
0 
0 
0 
0 
0 
0 
0 
0 
0 
0 
0 
0 
0 
0 
0 
0 
0 
0 
0 
0 
0 
0 
0 
0 
0 
0 
SCALARS lambda_t double 1
LOOKUP_TABLE default
0 
0 
0 
0 
0 
0 
0 
0 
0 
0 
0 
0 
0 
0 
0 
0 
0 
0 
0 
0 
0 
0 
0 
0 
0 
0 
0 
0 
0 
0 
0 
0 
0 
0 
0 
0 
0 
0 
0 
0 
0 
0 
0 
0 
0 
0 
0 
0 
0 
0 
0 
0 
0 
0 
0 
0 
0 
0 
0 
0 
0 
0 
0 
0 
0 
0 
0 
0 
0 
0 
0 
0 
0 
0 
0 
0 
0 
0 
0 
0 
0 
0 
0 
0 
0 
0 
0 
0 
0 
0 
0 
0 
0 
0 
0 
0 
0 
0 
0 
0 
SCALARS lambda_w double 1
LOOKUP_TABLE default
0 
0 
0 
0 
0 
0 
0 
0 
0 
0 
0 
0 
0 
0 
0 
0 
0 
0 
0 
0 
0 
0 
0 
0 
0 
0 
0 
0 
0 
0 
0 
0 
0 
0 
0 
0 
0 
0 
0 
0 
0 
0 
0 
0 
0 
0 
0 
0 
0 
0 
0 
0 
0 
0 
0 
0 
0 
0 
0 
0 
0 
0 
0 
0 
0 
0 
0 
0 
0 
0 
0 
0 
0 
0 
0 
0 
0 
0 
0 
0 
0 
0 
0 
0 
0 
0 
0 
0 
0 
0 
0 
0 
0 
0 
0 
0 
0 
0 
0 
0 
SCALARS mass_oil_production double 1
LOOKUP_TABLE default
0 
0 
0 
0 
0 
0 
0 
0 
0 
0 
0 
0 
0 
0 
0 
0 
0 
0 
0 
0 
0 
0 
0 
0 
0 
0 
0 
0 
0 
0 
0 
0 
0 
0 
0 
0 
0 
0 
0 
0 
0 
0 
0 
0 
0 
0 
0 
0 
0 
0 
0 
0 
0 
0 
0 
0 
0 
0 
0 
0 
0 
0 
0 
0 
0 
0 
0 
0 
0 
0 
0 
0 
0 
0 
0 
0 
0 
0 
0 
0 
0 
0 
0 
0 
0 
0 
0 
0 
0 
0 
0 
0 
0 
0 
0 
0 
0 
0 
0 
0 
SCALARS mass_water_production double 1
LOOKUP_TABLE default
0 
0 
0 
0 
0 
0 
0 
0 
0 
0 
0 
0 
0 
0 
0 
0 
0 
0 
0 
0 
0 
0 
0 
0 
0 
0 
0 
0 
0 
0 
0 
0 
0 
0 
0 
0 
0 
0 
0 
0 
0 
0 
0 
0 
0 
0 
0 
0 
0 
0 
0 
0 
0 
0 
0 
0 
0 
0 
0 
0 
0 
0 
0 
0 
0 
0 
0 
0 
0 
0 
0 
0 
0 
0 
0 
0 
0 
0 
0 
0 
0 
0 
0 
0 
0 
0 
0 
0 
0 
0 
0 
0 
0 
0 
0 
0 
0 
0 
0 
0 
TENSORS permeability double
9.869233e-15 0 0 0 9.869233e-15 0 0 0 9.869233e-15 
9.869233e-15 0 0 0 9.869233e-15 0 0 0 9.869233e-15 
9.869233e-15 0 0 0 9.869233e-15 0 0 0 9.869233e-15 
9.869233e-15 0 0 0 9.869233e-15 0 0 0 9.869233e-15 
9.869233e-15 0 0 0 9.869233e-15 0 0 0 9.869233e-15 
9.869233e-15 0 0 0 9.869233e-15 0 0 0 9.869233e-15 
9.869233e-15 0 0 0 9.869233e-15 0 0 0 9.869233e-15 
9.869233e-15 0 0 0 9.869233e-15 0 0 0 9.869233e-15 
9.869233e-15 0 0 0 9.869233e-15 0 0 0 9.869233e-15 
9.869233e-15 0 0 0 9.869233e-15 0 0 0 9.869233e-15 
9.869233e-15 0 0 0 9.869233e-15 0 0 0 9.869233e-15 
9.869233e-15 0 0 0 9.869233e-15 0 0 0 9.869233e-15 
9.869233e-15 0 0 0 9.869233e-15 0 0 0 9.869233e-15 
9.869233e-15 0 0 0 9.869233e-15 0 0 0 9.869233e-15 
9.869233e-15 0 0 0 9.869233e-15 0 0 0 9.869233e-15 
9.869233e-15 0 0 0 9.869233e-15 0 0 0 9.869233e-15 
9.869233e-15 0 0 0 9.869233e-15 0 0 0 9.869233e-15 
9.869233e-15 0 0 0 9.869233e-15 0 0 0 9.869233e-15 
9.869233e-15 0 0 0 9.869233e-15 0 0 0 9.869233e-15 
9.869233e-15 0 0 0 9.869233e-15 0 0 0 9.869233e-15 
9.869233e-15 0 0 0 9.869233e-15 0 0 0 9.869233e-15 
9.869233e-15 0 0 0 9.869233e-15 0 0 0 9.869233e-15 
9.869233e-15 0 0 0 9.869233e-15 0 0 0 9.869233e-15 
9.869233e-15 0 0 0 9.869233e-15 0 0 0 9.869233e-15 
9.869233e-15 0 0 0 9.869233e-15 0 0 0 9.869233e-15 
9.869233e-15 0 0 0 9.869233e-15 0 0 0 9.869233e-15 
9.869233e-15 0 0 0 9.869233e-15 0 0 0 9.869233e-15 
9.869233e-15 0 0 0 9.869233e-15 0 0 0 9.869233e-15 
9.869233e-15 0 0 0 9.869233e-15 0 0 0 9.869233e-15 
9.869233e-15 0 0 0 9.869233e-15 0 0 0 9.869233e-15 
9.869233e-15 0 0 0 9.869233e-15 0 0 0 9.869233e-15 
9.869233e-15 0 0 0 9.869233e-15 0 0 0 9.869233e-15 
9.869233e-15 0 0 0 9.869233e-15 0 0 0 9.869233e-15 
9.869233e-15 0 0 0 9.869233e-15 0 0 0 9.869233e-15 
9.869233e-15 0 0 0 9.869233e-15 0 0 0 9.869233e-15 
9.869233e-15 0 0 0 9.869233e-15 0 0 0 9.869233e-15 
9.869233e-15 0 0 0 9.869233e-15 0 0 0 9.869233e-15 
9.869233e-15 0 0 0 9.869233e-15 0 0 0 9.869233e-15 
9.869233e-15 0 0 0 9.869233e-15 0 0 0 9.869233e-15 
9.869233e-15 0 0 0 9.869233e-15 0 0 0 9.869233e-15 
9.869233e-15 0 0 0 9.869233e-15 0 0 0 9.869233e-15 
9.869233e-15 0 0 0 9.869233e-15 0 0 0 9.869233e-15 
9.869233e-15 0 0 0 9.869233e-15 0 0 0 9.869233e-15 
9.869233e-15 0 0 0 9.869233e-15 0 0 0 9.869233e-15 
9.869233e-15 0 0 0 9.869233e-15 0 0 0 9.869233e-15 
9.869233e-15 0 0 0 9.869233e-15 0 0 0 9.869233e-15 
9.869233e-15 0 0 0 9.869233e-15 0 0 0 9.869233e-15 
9.869233e-15 0 0 0 9.869233e-15 0 0 0 9.869233e-15 
9.869233e-15 0 0 0 9.869233e-15 0 0 0 9.869233e-15 
9.869233e-15 0 0 0 9.869233e-15 0 0 0 9.869233e-15 
9.869233e-15 0 0 0 9.869233e-15 0 0 0 9.869233e-15 
9.869233e-15 0 0 0 9.869233e-15 0 0 0 9.869233e-15 
9.869233e-15 0 0 0 9.869233e-15 0 0 0 9.869233e-15 
9.869233e-15 0 0 0 9.869233e-15 0 0 0 9.869233e-15 
9.869233e-15 0 0 0 9.869233e-15 0 0 0 9.869233e-15 
9.869233e-15 0 0 0 9.869233e-15 0 0 0 9.869233e-15 
9.869233e-15 0 0 0 9.869233e-15 0 0 0 9.869233e-15 
9.869233e-15 0 0 0 9.869233e-15 0 0 0 9.869233e-15 
9.869233e-15 0 0 0 9.869233e-15 0 0 0 9.869233e-15 
9.869233e-15 0 0 0 9.869233e-15 0 0 0 9.869233e-15 
9.869233e-15 0 0 0 9.869233e-15 0 0 0 9.869233e-15 
9.869233e-15 0 0 0 9.869233e-15 0 0 0 9.869233e-15 
9.869233e-15 0 0 0 9.869233e-15 0 0 0 9.869233e-15 
9.869233e-15 0 0 0 9.869233e-15 0 0 0 9.869233e-15 
9.869233e-15 0 0 0 9.869233e-15 0 0 0 9.869233e-15 
9.869233e-15 0 0 0 9.869233e-15 0 0 0 9.869233e-15 
9.869233e-15 0 0 0 9.869233e-15 0 0 0 9.869233e-15 
9.869233e-15 0 0 0 9.869233e-15 0 0 0 9.869233e-15 
9.869233e-15 0 0 0 9.869233e-15 0 0 0 9.869233e-15 